<?xml version="1.0" encoding="UTF-8"?>

<!-- generated on 2025-05-08 09:29:58 by Eclipse SUMO GUI Version 1.20.0
<configuration xmlns:xsi="http://www.w3.org/2001/XMLSchema-instance" xsi:noNamespaceSchemaLocation="http://sumo.dlr.de/xsd/sumoConfiguration.xsd">

    <input>
        <net-file value="/Users/beyzaeken/Desktop/sfdigitalmirror/sumoenv/sf_new.net.xml"/>
        <route-files value="/Users/beyzaeken/Desktop/sfdigitalmirror/sumoenv/scenario/normal/2021-01-14/09-10/sf_routes_210114_0910.rou.xml, /Users/beyzaeken/Desktop/sfdigitalmirror/fleet_vehicles.rou.xml, /Users/beyzaeken/Desktop/sfdigitalmirror/passenger_requests.rou.xml"/>
        <additional-files value="/Users/beyzaeken/Desktop/sfdigitalmirror/sumoenv/taz_zones.poly.xml"/>
    </input>

    <output>
        <queue-output value="/Users/beyzaeken/Desktop/sfdigitalmirror/sumoenv/scenario/normal/2021-01-14/09-10/queue.xml"/>
        <summary-output value="/Users/beyzaeken/Desktop/sfdigitalmirror/sumoenv/scenario/normal/2021-01-14/09-10/summary.xml"/>
        <tripinfo-output value="/Users/beyzaeken/Desktop/sfdigitalmirror/sumoenv/scenario/normal/2021-01-14/09-10/tripinfos.xml"/>
        <vehroute-output value="/Users/beyzaeken/Desktop/sfdigitalmirror/sumoenv/scenario/normal/2021-01-14/09-10/vehroute.xml"/>
        <save-state.prefix value="/Users/beyzaeken/Desktop/sfdigitalmirror/sumoenv/scenario/normal/2021-01-14/09-10/state"/>
    </output>

    <time>
        <end value="3600"/>
    </time>

    <processing>
        <threads value="4"/>
        <ignore-junction-blocker value="1"/>
        <ignore-route-errors value="true"/>
        <time-to-teleport value="35"/>
    </processing>

    <report>
        <log value="/Users/beyzaeken/Desktop/sfdigitalmirror/sumoenv/scenario/normal/2021-01-14/09-10/sumo_log.txt"/>
        <no-step-log value="true"/>
    </report>

    <traci_server>
        <remote-port value="51278"/>
    </traci_server>

</configuration>
-->

<tripinfos xmlns:xsi="http://www.w3.org/2001/XMLSchema-instance" xsi:noNamespaceSchemaLocation="http://sumo.dlr.de/xsd/tripinfo_file.xsd">
    <tripinfo id="7260" depart="2.00" departLane="-391862870#2_0" departPos="5.10" departSpeed="0.00" departDelay="0.00" arrival="16.00" arrivalLane="-391862870#2_0" arrivalPos="173.88" arrivalSpeed="17.56" duration="14.00" routeLength="168.78" waitingTime="0.00" waitingCount="0" stopTime="0.00" timeLoss="3.91" rerouteNo="1" devices="vehroute_7260 tripinfo_7260 routing_7260" vType="DEFAULT_VEHTYPE" speedFactor="1.13" vaporized=""/>
    <tripinfo id="1544" depart="5.00" departLane="678038618_0" departPos="5.10" departSpeed="0.00" departDelay="0.00" arrival="18.00" arrivalLane="678038618_0" arrivalPos="138.21" arrivalSpeed="15.29" duration="13.00" routeLength="133.11" waitingTime="0.00" waitingCount="0" stopTime="0.00" timeLoss="3.92" rerouteNo="1" devices="vehroute_1544 tripinfo_1544 routing_1544" vType="DEFAULT_VEHTYPE" speedFactor="1.03" vaporized=""/>
    <tripinfo id="5788" depart="10.00" departLane="-8917284#0_0" departPos="5.10" departSpeed="0.00" departDelay="0.00" arrival="31.00" arrivalLane="286003784_0" arrivalPos="104.37" arrivalSpeed="16.29" duration="21.00" routeLength="223.31" waitingTime="0.00" waitingCount="0" stopTime="0.00" timeLoss="7.22" rerouteNo="0" devices="vehroute_5788 tripinfo_5788 routing_5788" vType="DEFAULT_VEHTYPE" speedFactor="1.10" vaporized=""/>
    <tripinfo id="2055" depart="22.00" departLane="32007659_0" departPos="5.10" departSpeed="0.00" departDelay="0.00" arrival="33.00" arrivalLane="32007659_0" arrivalPos="122.21" arrivalSpeed="16.03" duration="11.00" routeLength="117.11" waitingTime="0.00" waitingCount="0" stopTime="0.00" timeLoss="3.81" rerouteNo="1" devices="vehroute_2055 tripinfo_2055 routing_2055" vType="DEFAULT_VEHTYPE" speedFactor="1.06" vaporized=""/>
    <tripinfo id="8719" depart="0.00" departLane="-8918969#0_0" departPos="5.10" departSpeed="0.00" departDelay="0.00" arrival="34.00" arrivalLane="-8918969#0_0" arrivalPos="173.50" arrivalSpeed="5.11" duration="34.00" routeLength="168.40" waitingTime="0.00" waitingCount="0" stopTime="0.00" timeLoss="5.18" rerouteNo="1" devices="vehroute_8719 tripinfo_8719 routing_8719" vType="DEFAULT_VEHTYPE" speedFactor="0.89" vaporized=""/>
    <tripinfo id="8885" depart="23.00" departLane="681660474#0_0" departPos="5.10" departSpeed="0.00" departDelay="0.00" arrival="36.00" arrivalLane="681660474#0_0" arrivalPos="162.33" arrivalSpeed="17.15" duration="13.00" routeLength="157.23" waitingTime="0.00" waitingCount="0" stopTime="0.00" timeLoss="4.10" rerouteNo="1" devices="vehroute_8885 tripinfo_8885 routing_8885" vType="DEFAULT_VEHTYPE" speedFactor="1.14" vaporized=""/>
    <tripinfo id="1486" depart="29.00" departLane="-680438018#1_0" departPos="5.10" departSpeed="0.00" departDelay="0.00" arrival="41.00" arrivalLane="-680438018#1_0" arrivalPos="84.67" arrivalSpeed="6.81" duration="12.00" routeLength="79.57" waitingTime="0.00" waitingCount="0" stopTime="0.00" timeLoss="1.73" rerouteNo="1" devices="vehroute_1486 tripinfo_1486 routing_1486" vType="DEFAULT_VEHTYPE" speedFactor="1.17" vaporized=""/>
    <tripinfo id="5740" depart="34.00" departLane="254760012#1_0" departPos="5.10" departSpeed="0.00" departDelay="0.00" arrival="49.00" arrivalLane="254760012#1_0" arrivalPos="85.71" arrivalSpeed="6.42" duration="15.00" routeLength="80.61" waitingTime="0.00" waitingCount="0" stopTime="0.00" timeLoss="2.42" rerouteNo="1" devices="vehroute_5740 tripinfo_5740 routing_5740" vType="DEFAULT_VEHTYPE" speedFactor="0.96" vaporized=""/>
    <tripinfo id="7258" depart="34.00" departLane="-254760012#1_0" departPos="5.10" departSpeed="0.00" departDelay="0.00" arrival="51.00" arrivalLane="-254760012#1_0" arrivalPos="85.71" arrivalSpeed="5.53" duration="17.00" routeLength="80.61" waitingTime="0.00" waitingCount="0" stopTime="0.00" timeLoss="2.73" rerouteNo="1" devices="vehroute_7258 tripinfo_7258 routing_7258" vType="DEFAULT_VEHTYPE" speedFactor="0.89" vaporized=""/>
    <tripinfo id="5732" depart="25.00" departLane="24547816_0" departPos="5.10" departSpeed="0.00" departDelay="0.00" arrival="52.00" arrivalLane="24547816_0" arrivalPos="141.83" arrivalSpeed="5.10" duration="27.00" routeLength="136.73" waitingTime="0.00" waitingCount="0" stopTime="0.00" timeLoss="3.79" rerouteNo="1" devices="vehroute_5732 tripinfo_5732 routing_5732" vType="DEFAULT_VEHTYPE" speedFactor="0.88" vaporized=""/>
    <tripinfo id="1431" depart="37.00" departLane="-680438021_0" departPos="5.10" departSpeed="0.00" departDelay="0.00" arrival="59.00" arrivalLane="-680438021_0" arrivalPos="139.45" arrivalSpeed="6.67" duration="22.00" routeLength="134.35" waitingTime="0.00" waitingCount="0" stopTime="0.00" timeLoss="3.05" rerouteNo="1" devices="vehroute_1431 tripinfo_1431 routing_1431" vType="DEFAULT_VEHTYPE" speedFactor="1.07" vaporized=""/>
    <tripinfo id="8759" depart="43.00" departLane="681758091_0" departPos="5.10" departSpeed="0.00" departDelay="0.00" arrival="67.00" arrivalLane="681758091_0" arrivalPos="146.77" arrivalSpeed="5.66" duration="24.00" routeLength="141.67" waitingTime="0.00" waitingCount="0" stopTime="0.00" timeLoss="3.00" rerouteNo="1" devices="vehroute_8759 tripinfo_8759 routing_8759" vType="DEFAULT_VEHTYPE" speedFactor="1.02" vaporized=""/>
    <tripinfo id="5849" depart="21.00" departLane="-262935286_0" departPos="5.10" departSpeed="0.00" departDelay="0.00" arrival="70.00" arrivalLane="44671098#3_0" arrivalPos="72.89" arrivalSpeed="14.75" duration="49.00" routeLength="351.47" waitingTime="0.00" waitingCount="0" stopTime="0.00" timeLoss="6.91" rerouteNo="1" devices="vehroute_5849 tripinfo_5849 routing_5849" vType="DEFAULT_VEHTYPE" speedFactor="0.96" vaporized=""/>
    <tripinfo id="7215" depart="28.00" departLane="24547816_0" departPos="5.10" departSpeed="0.00" departDelay="0.00" arrival="70.00" arrivalLane="254760012#1_0" arrivalPos="85.71" arrivalSpeed="5.13" duration="42.00" routeLength="222.44" waitingTime="0.00" waitingCount="0" stopTime="0.00" timeLoss="6.62" rerouteNo="0" devices="vehroute_7215 tripinfo_7215 routing_7215" vType="DEFAULT_VEHTYPE" speedFactor="0.96" vaporized=""/>
    <tripinfo id="5803" depart="24.00" departLane="-286003784_0" departPos="5.10" departSpeed="0.00" departDelay="0.00" arrival="71.00" arrivalLane="99278916_0" arrivalPos="55.61" arrivalSpeed="11.27" duration="47.00" routeLength="661.27" waitingTime="0.00" waitingCount="0" stopTime="0.00" timeLoss="10.39" rerouteNo="1" devices="vehroute_5803 tripinfo_5803 routing_5803" vType="DEFAULT_VEHTYPE" speedFactor="1.05" vaporized=""/>
    <tripinfo id="7254" depart="31.00" departLane="-391862870#2_0" departPos="5.10" departSpeed="0.00" departDelay="0.00" arrival="71.00" arrivalLane="24547816_0" arrivalPos="141.83" arrivalSpeed="6.30" duration="40.00" routeLength="310.61" waitingTime="0.00" waitingCount="0" stopTime="0.00" timeLoss="6.10" rerouteNo="0" devices="vehroute_7254 tripinfo_7254 routing_7254" vType="DEFAULT_VEHTYPE" speedFactor="0.96" vaporized=""/>
    <tripinfo id="8873" depart="17.00" departLane="948053614_0" departPos="5.10" departSpeed="0.00" departDelay="0.00" arrival="72.00" arrivalLane="948053614_0" arrivalPos="1677.77" arrivalSpeed="37.14" duration="55.00" routeLength="1672.67" waitingTime="0.00" waitingCount="0" stopTime="0.00" timeLoss="10.07" rerouteNo="1" devices="vehroute_8873 tripinfo_8873 routing_8873" vType="DEFAULT_VEHTYPE" speedFactor="0.85" vaporized=""/>
    <tripinfo id="8930" depart="36.00" departLane="681479565_0" departPos="5.10" departSpeed="0.00" departDelay="0.00" arrival="79.00" arrivalLane="E14_0" arrivalPos="277.81" arrivalSpeed="14.67" duration="43.00" routeLength="573.61" waitingTime="0.00" waitingCount="0" stopTime="0.00" timeLoss="8.34" rerouteNo="1" devices="vehroute_8930 tripinfo_8930 routing_8930" vType="DEFAULT_VEHTYPE" speedFactor="0.95" vaporized=""/>
    <tripinfo id="8915" depart="59.00" departLane="-398849856_0" departPos="5.10" departSpeed="0.00" departDelay="0.00" arrival="81.00" arrivalLane="-398849856_0" arrivalPos="147.00" arrivalSpeed="6.43" duration="22.00" routeLength="141.90" waitingTime="0.00" waitingCount="0" stopTime="0.00" timeLoss="2.71" rerouteNo="1" devices="vehroute_8915 tripinfo_8915 routing_8915" vType="DEFAULT_VEHTYPE" speedFactor="1.12" vaporized=""/>
    <tripinfo id="25" depart="56.00" departLane="620169744#0_0" departPos="5.10" departSpeed="0.00" departDelay="0.00" arrival="82.00" arrivalLane="620169744#0_0" arrivalPos="146.25" arrivalSpeed="5.58" duration="26.00" routeLength="141.15" waitingTime="0.00" waitingCount="0" stopTime="0.00" timeLoss="3.37" rerouteNo="1" devices="vehroute_25 tripinfo_25 routing_25" vType="DEFAULT_VEHTYPE" speedFactor="0.96" vaporized=""/>
    <tripinfo id="8831" depart="21.00" departLane="619568414_0" departPos="5.10" departSpeed="0.00" departDelay="0.00" arrival="86.00" arrivalLane="689603994_0" arrivalPos="163.59" arrivalSpeed="13.72" duration="65.00" routeLength="252.95" waitingTime="36.00" waitingCount="1" stopTime="0.00" timeLoss="39.61" rerouteNo="0" devices="vehroute_8831 tripinfo_8831 routing_8831" vType="DEFAULT_VEHTYPE" speedFactor="0.95" vaporized=""/>
    <tripinfo id="8601" depart="46.00" departLane="8918969#0_0" departPos="5.10" departSpeed="0.00" departDelay="0.00" arrival="91.00" arrivalLane="8918969#1_0" arrivalPos="109.80" arrivalSpeed="6.74" duration="45.00" routeLength="278.20" waitingTime="0.00" waitingCount="0" stopTime="0.00" timeLoss="5.10" rerouteNo="0" devices="vehroute_8601 tripinfo_8601 routing_8601" vType="DEFAULT_VEHTYPE" speedFactor="1.05" vaporized=""/>
    <tripinfo id="5807" depart="49.00" departLane="-286003784_0" departPos="5.10" departSpeed="0.00" departDelay="0.00" arrival="92.00" arrivalLane="99278916_0" arrivalPos="55.61" arrivalSpeed="12.55" duration="43.00" routeLength="661.27" waitingTime="0.00" waitingCount="0" stopTime="0.00" timeLoss="10.12" rerouteNo="1" devices="vehroute_5807 tripinfo_5807 routing_5807" vType="DEFAULT_VEHTYPE" speedFactor="1.17" vaporized=""/>
    <tripinfo id="2062" depart="38.00" departLane="417187947#0_0" departPos="5.10" departSpeed="0.00" departDelay="2.00" arrival="97.00" arrivalLane="683423171#0_0" arrivalPos="150.30" arrivalSpeed="17.53" duration="59.00" routeLength="257.41" waitingTime="36.00" waitingCount="1" stopTime="0.00" timeLoss="45.85" rerouteNo="0" devices="vehroute_2062 tripinfo_2062 routing_2062" vType="DEFAULT_VEHTYPE" speedFactor="0.89" vaporized=""/>
    <tripinfo id="8650" depart="43.00" departLane="8917593#3_0" departPos="5.10" departSpeed="0.00" departDelay="0.00" arrival="101.00" arrivalLane="689603978_0" arrivalPos="170.60" arrivalSpeed="44.97" duration="58.00" routeLength="258.21" waitingTime="36.00" waitingCount="1" stopTime="0.00" timeLoss="41.44" rerouteNo="0" devices="vehroute_8650 tripinfo_8650 routing_8650" vType="DEFAULT_VEHTYPE" speedFactor="1.03" vaporized=""/>
    <tripinfo id="1482" depart="58.00" departLane="-682768769_0" departPos="5.10" departSpeed="0.00" departDelay="0.00" arrival="101.00" arrivalLane="-682768769_0" arrivalPos="234.57" arrivalSpeed="5.16" duration="43.00" routeLength="229.47" waitingTime="0.00" waitingCount="0" stopTime="0.00" timeLoss="5.36" rerouteNo="1" devices="vehroute_1482 tripinfo_1482 routing_1482" vType="DEFAULT_VEHTYPE" speedFactor="0.92" vaporized=""/>
    <tripinfo id="6595" depart="24.00" departLane="945326760#0_0" departPos="5.10" departSpeed="0.00" departDelay="0.00" arrival="103.00" arrivalLane="397093352#0_0" arrivalPos="45.61" arrivalSpeed="23.06" duration="79.00" routeLength="678.08" waitingTime="0.00" waitingCount="0" stopTime="0.00" timeLoss="12.95" rerouteNo="1" devices="vehroute_6595 tripinfo_6595 routing_6595" vType="DEFAULT_VEHTYPE" speedFactor="0.95" vaporized=""/>
    <tripinfo id="6529" depart="6.00" departLane="254453308#0_0" departPos="5.10" departSpeed="0.00" departDelay="0.00" arrival="107.00" arrivalLane="84654229#0_0" arrivalPos="297.74" arrivalSpeed="27.25" duration="101.00" routeLength="1147.54" waitingTime="25.00" waitingCount="3" stopTime="0.00" timeLoss="57.39" rerouteNo="1" devices="vehroute_6529 tripinfo_6529 routing_6529" vType="DEFAULT_VEHTYPE" speedFactor="1.02" vaporized=""/>
    <tripinfo id="5725" depart="32.00" departLane="1082766087_0" departPos="5.10" departSpeed="0.00" departDelay="0.00" arrival="108.00" arrivalLane="505747779_0" arrivalPos="105.00" arrivalSpeed="5.99" duration="76.00" routeLength="204.35" waitingTime="36.00" waitingCount="1" stopTime="0.00" timeLoss="43.45" rerouteNo="0" devices="vehroute_5725 tripinfo_5725 routing_5725" vType="DEFAULT_VEHTYPE" speedFactor="0.93" vaporized=""/>
    <tripinfo id="2067" depart="95.00" departLane="-680438018#1_0" departPos="5.10" departSpeed="0.00" departDelay="41.00" arrival="109.00" arrivalLane="-680438018#1_0" arrivalPos="84.67" arrivalSpeed="6.51" duration="14.00" routeLength="79.57" waitingTime="0.00" waitingCount="0" stopTime="0.00" timeLoss="2.11" rerouteNo="1" devices="vehroute_2067 tripinfo_2067 routing_2067" vType="DEFAULT_VEHTYPE" speedFactor="1.05" vaporized=""/>
    <tripinfo id="8635" depart="5.00" departLane="8918969#0_0" departPos="5.10" departSpeed="0.00" departDelay="0.00" arrival="111.00" arrivalLane="-48570006#0_0" arrivalPos="283.08" arrivalSpeed="6.01" duration="106.00" routeLength="645.87" waitingTime="0.00" waitingCount="0" stopTime="0.00" timeLoss="12.01" rerouteNo="1" devices="vehroute_8635 tripinfo_8635 routing_8635" vType="DEFAULT_VEHTYPE" speedFactor="1.03" vaporized=""/>
    <tripinfo id="8647" depart="61.00" departLane="8918969#0_0" departPos="5.10" departSpeed="0.00" departDelay="2.00" arrival="112.00" arrivalLane="8918969#1_0" arrivalPos="109.80" arrivalSpeed="5.34" duration="51.00" routeLength="278.20" waitingTime="0.00" waitingCount="0" stopTime="0.00" timeLoss="6.38" rerouteNo="0" devices="vehroute_8647 tripinfo_8647 routing_8647" vType="DEFAULT_VEHTYPE" speedFactor="0.93" vaporized=""/>
    <tripinfo id="8841" depart="2.00" departLane="-48570006#0_0" departPos="5.10" departSpeed="0.00" departDelay="0.00" arrival="118.00" arrivalLane="27043786#0_0" arrivalPos="84.59" arrivalSpeed="6.25" duration="116.00" routeLength="721.54" waitingTime="0.00" waitingCount="0" stopTime="0.00" timeLoss="12.61" rerouteNo="1" devices="vehroute_8841 tripinfo_8841 routing_8841" vType="DEFAULT_VEHTYPE" speedFactor="1.05" vaporized=""/>
    <tripinfo id="6690" depart="103.00" departLane="158468715#0_0" departPos="5.10" departSpeed="0.00" departDelay="0.00" arrival="122.00" arrivalLane="158468715#0_0" arrivalPos="299.76" arrivalSpeed="23.22" duration="19.00" routeLength="294.66" waitingTime="0.00" waitingCount="0" stopTime="0.00" timeLoss="6.21" rerouteNo="1" devices="vehroute_6690 tripinfo_6690 routing_6690" vType="DEFAULT_VEHTYPE" speedFactor="0.91" vaporized=""/>
    <tripinfo id="5871" depart="52.00" departLane="99278916_0" departPos="5.10" departSpeed="0.00" departDelay="0.00" arrival="123.00" arrivalLane="286003784_0" arrivalPos="104.37" arrivalSpeed="15.69" duration="71.00" routeLength="706.57" waitingTime="0.00" waitingCount="0" stopTime="0.00" timeLoss="13.56" rerouteNo="1" devices="vehroute_5871 tripinfo_5871 routing_5871" vType="DEFAULT_VEHTYPE" speedFactor="1.06" vaporized=""/>
    <tripinfo id="8637" depart="9.00" departLane="8915454_0" departPos="5.10" departSpeed="0.00" departDelay="0.00" arrival="125.00" arrivalLane="225854641_0" arrivalPos="296.72" arrivalSpeed="29.82" duration="116.00" routeLength="1351.89" waitingTime="24.00" waitingCount="1" stopTime="0.00" timeLoss="54.01" rerouteNo="1" devices="vehroute_8637 tripinfo_8637 routing_8637" vType="DEFAULT_VEHTYPE" speedFactor="1.15" vaporized=""/>
    <tripinfo id="6683" depart="7.00" departLane="-417962857_0" departPos="5.10" departSpeed="0.00" departDelay="0.00" arrival="127.00" arrivalLane="225516712#2_0" arrivalPos="116.42" arrivalSpeed="19.50" duration="120.00" routeLength="1296.87" waitingTime="19.00" waitingCount="2" stopTime="0.00" timeLoss="41.75" rerouteNo="1" devices="vehroute_6683 tripinfo_6683 routing_6683" vType="DEFAULT_VEHTYPE" speedFactor="1.01" vaporized=""/>
    <tripinfo id="7262" depart="33.00" departLane="-419657507#0_0" departPos="5.10" departSpeed="0.00" departDelay="0.00" arrival="132.00" arrivalLane="-419657503_0" arrivalPos="141.40" arrivalSpeed="12.05" duration="99.00" routeLength="708.35" waitingTime="0.00" waitingCount="0" stopTime="0.00" timeLoss="13.24" rerouteNo="1" devices="vehroute_7262 tripinfo_7262 routing_7262" vType="DEFAULT_VEHTYPE" speedFactor="0.84" vaporized=""/>
    <tripinfo id="6728" depart="13.00" departLane="110365012#3_0" departPos="5.10" departSpeed="0.00" departDelay="0.00" arrival="136.00" arrivalLane="-706542863#0_0" arrivalPos="193.44" arrivalSpeed="6.24" duration="123.00" routeLength="703.73" waitingTime="40.00" waitingCount="2" stopTime="0.00" timeLoss="66.59" rerouteNo="1" devices="vehroute_6728 tripinfo_6728 routing_6728" vType="DEFAULT_VEHTYPE" speedFactor="1.05" vaporized=""/>
    <tripinfo id="7218" depart="17.00" departLane="417284150#0_0" departPos="5.10" departSpeed="0.00" departDelay="5.00" arrival="137.00" arrivalLane="-425516678#9_0" arrivalPos="57.66" arrivalSpeed="5.18" duration="120.00" routeLength="830.92" waitingTime="21.00" waitingCount="1" stopTime="0.00" timeLoss="40.94" rerouteNo="1" devices="vehroute_7218 tripinfo_7218 routing_7218" vType="DEFAULT_VEHTYPE" speedFactor="0.83" vaporized=""/>
    <tripinfo id="6530" depart="7.00" departLane="417087426_0" departPos="5.10" departSpeed="0.00" departDelay="0.00" arrival="140.00" arrivalLane="403877660#0_0" arrivalPos="218.32" arrivalSpeed="7.70" duration="133.00" routeLength="781.71" waitingTime="61.00" waitingCount="4" stopTime="0.00" timeLoss="94.77" rerouteNo="1" devices="vehroute_6530 tripinfo_6530 routing_6530" vType="DEFAULT_VEHTYPE" speedFactor="1.06" vaporized=""/>
    <tripinfo id="2066" depart="20.00" departLane="680783343#0_0" departPos="5.10" departSpeed="0.00" departDelay="0.00" arrival="140.00" arrivalLane="283529405#0_0" arrivalPos="188.66" arrivalSpeed="25.36" duration="120.00" routeLength="1771.42" waitingTime="16.00" waitingCount="1" stopTime="0.00" timeLoss="44.35" rerouteNo="1" devices="vehroute_2066 tripinfo_2066 routing_2066" vType="DEFAULT_VEHTYPE" speedFactor="1.30" vaporized=""/>
    <tripinfo id="2053" depart="36.00" departLane="417187947#0_0" departPos="5.10" departSpeed="0.00" departDelay="0.00" arrival="143.00" arrivalLane="514631364#0_0" arrivalPos="103.03" arrivalSpeed="18.02" duration="107.00" routeLength="535.05" waitingTime="36.00" waitingCount="1" stopTime="0.00" timeLoss="53.08" rerouteNo="1" devices="vehroute_2053 tripinfo_2053 routing_2053" vType="DEFAULT_VEHTYPE" speedFactor="0.92" vaporized=""/>
    <tripinfo id="6717" depart="2.00" departLane="502795544#0_0" departPos="5.10" departSpeed="0.00" departDelay="0.00" arrival="148.00" arrivalLane="771447982#2_0" arrivalPos="56.93" arrivalSpeed="17.63" duration="146.00" routeLength="1288.21" waitingTime="65.00" waitingCount="2" stopTime="0.00" timeLoss="83.47" rerouteNo="1" devices="vehroute_6717 tripinfo_6717 routing_6717" vType="DEFAULT_VEHTYPE" speedFactor="0.91" vaporized=""/>
    <tripinfo id="2038" depart="16.00" departLane="-680438018#1_0" departPos="5.10" departSpeed="0.00" departDelay="0.00" arrival="156.00" arrivalLane="-682768769_0" arrivalPos="234.57" arrivalSpeed="6.71" duration="140.00" routeLength="1211.09" waitingTime="0.00" waitingCount="0" stopTime="0.00" timeLoss="20.05" rerouteNo="1" devices="vehroute_2038 tripinfo_2038 routing_2038" vType="DEFAULT_VEHTYPE" speedFactor="1.13" vaporized=""/>
    <tripinfo id="6714" depart="95.00" departLane="969999009#0_0" departPos="5.10" departSpeed="0.00" departDelay="39.00" arrival="157.00" arrivalLane="-706542863#0_0" arrivalPos="193.44" arrivalSpeed="7.12" duration="62.00" routeLength="367.43" waitingTime="0.00" waitingCount="0" stopTime="0.00" timeLoss="25.31" rerouteNo="0" devices="vehroute_6714 tripinfo_6714 routing_6714" vType="DEFAULT_VEHTYPE" speedFactor="1.13" vaporized=""/>
    <tripinfo id="6677" depart="98.00" departLane="969999009#0_0" departPos="5.10" departSpeed="0.00" departDelay="40.00" arrival="159.00" arrivalLane="-706542863#0_0" arrivalPos="193.44" arrivalSpeed="6.69" duration="61.00" routeLength="367.43" waitingTime="0.00" waitingCount="0" stopTime="0.00" timeLoss="20.58" rerouteNo="0" devices="vehroute_6677 tripinfo_6677 routing_6677" vType="DEFAULT_VEHTYPE" speedFactor="1.01" vaporized=""/>
    <tripinfo id="8931" depart="10.00" departLane="37555378#0_0" departPos="5.10" departSpeed="0.00" departDelay="0.00" arrival="160.00" arrivalLane="255178116#5_0" arrivalPos="82.25" arrivalSpeed="17.58" duration="150.00" routeLength="1466.10" waitingTime="19.00" waitingCount="1" stopTime="0.00" timeLoss="39.45" rerouteNo="1" devices="vehroute_8931 tripinfo_8931 routing_8931" vType="DEFAULT_VEHTYPE" speedFactor="1.16" vaporized=""/>
    <tripinfo id="6640" depart="104.00" departLane="969999009#0_0" departPos="5.10" departSpeed="0.00" departDelay="46.00" arrival="161.00" arrivalLane="-706542863#0_0" arrivalPos="193.44" arrivalSpeed="6.49" duration="57.00" routeLength="367.43" waitingTime="0.00" waitingCount="0" stopTime="0.00" timeLoss="18.32" rerouteNo="0" devices="vehroute_6640 tripinfo_6640 routing_6640" vType="DEFAULT_VEHTYPE" speedFactor="1.05" vaporized=""/>
    <tripinfo id="2006" depart="13.00" departLane="-678038624#1_0" departPos="5.10" departSpeed="0.00" departDelay="0.00" arrival="163.00" arrivalLane="397138671_0" arrivalPos="42.62" arrivalSpeed="24.75" duration="150.00" routeLength="1306.24" waitingTime="21.00" waitingCount="1" stopTime="0.00" timeLoss="42.65" rerouteNo="1" devices="vehroute_2006 tripinfo_2006 routing_2006" vType="DEFAULT_VEHTYPE" speedFactor="1.03" vaporized=""/>
    <tripinfo id="6610" depart="0.00" departLane="403152783#0_0" departPos="5.10" departSpeed="0.00" departDelay="0.00" arrival="164.00" arrivalLane="-706542863#0_0" arrivalPos="193.44" arrivalSpeed="5.60" duration="164.00" routeLength="1078.16" waitingTime="46.00" waitingCount="4" stopTime="0.00" timeLoss="80.22" rerouteNo="1" devices="vehroute_6610 tripinfo_6610 routing_6610" vType="DEFAULT_VEHTYPE" speedFactor="0.94" vaporized=""/>
    <tripinfo id="2010" depart="16.00" departLane="8919908#2_0" departPos="5.10" departSpeed="0.00" departDelay="0.00" arrival="181.00" arrivalLane="-680438018#1_0" arrivalPos="84.67" arrivalSpeed="4.29" duration="165.00" routeLength="635.82" waitingTime="72.00" waitingCount="2" stopTime="0.00" timeLoss="87.22" rerouteNo="1" devices="vehroute_2010 tripinfo_2010 routing_2010" vType="DEFAULT_VEHTYPE" speedFactor="0.81" vaporized=""/>
    <tripinfo id="8772" depart="155.00" departLane="-505761791#1_0" departPos="5.10" departSpeed="0.00" departDelay="0.00" arrival="181.00" arrivalLane="-505761791#1_0" arrivalPos="144.64" arrivalSpeed="5.93" duration="26.00" routeLength="139.54" waitingTime="0.00" waitingCount="0" stopTime="0.00" timeLoss="4.16" rerouteNo="1" devices="vehroute_8772 tripinfo_8772 routing_8772" vType="DEFAULT_VEHTYPE" speedFactor="0.96" vaporized=""/>
    <tripinfo id="1407" depart="37.00" departLane="-682768769_0" departPos="5.10" departSpeed="0.00" departDelay="0.00" arrival="185.00" arrivalLane="-682768770#1_0" arrivalPos="49.42" arrivalSpeed="6.61" duration="148.00" routeLength="752.67" waitingTime="50.00" waitingCount="2" stopTime="0.00" timeLoss="70.15" rerouteNo="1" devices="vehroute_1407 tripinfo_1407 routing_1407" vType="DEFAULT_VEHTYPE" speedFactor="1.04" vaporized=""/>
    <tripinfo id="8644" depart="40.00" departLane="27146311#0_0" departPos="5.10" departSpeed="0.00" departDelay="0.00" arrival="185.00" arrivalLane="619568411#1_0" arrivalPos="50.19" arrivalSpeed="17.06" duration="145.00" routeLength="1065.20" waitingTime="72.00" waitingCount="2" stopTime="0.00" timeLoss="85.31" rerouteNo="1" devices="vehroute_8644 tripinfo_8644 routing_8644" vType="DEFAULT_VEHTYPE" speedFactor="1.14" vaporized=""/>
    <tripinfo id="8937" depart="47.00" departLane="-505761791#1_0" departPos="5.10" departSpeed="0.00" departDelay="25.00" arrival="186.00" arrivalLane="143666212#0_0" arrivalPos="104.15" arrivalSpeed="6.26" duration="139.00" routeLength="495.22" waitingTime="72.00" waitingCount="2" stopTime="0.00" timeLoss="82.64" rerouteNo="1" devices="vehroute_8937 tripinfo_8937 routing_8937" vType="DEFAULT_VEHTYPE" speedFactor="1.08" vaporized=""/>
    <tripinfo id="5800" depart="16.00" departLane="30029703#4_0" departPos="5.10" departSpeed="0.00" departDelay="0.00" arrival="189.00" arrivalLane="397146715#0_0" arrivalPos="98.90" arrivalSpeed="14.49" duration="173.00" routeLength="1308.42" waitingTime="48.00" waitingCount="2" stopTime="0.00" timeLoss="78.47" rerouteNo="1" devices="vehroute_5800 tripinfo_5800 routing_5800" vType="DEFAULT_VEHTYPE" speedFactor="0.97" vaporized=""/>
    <tripinfo id="6668" depart="41.00" departLane="945294690#0_0" departPos="5.10" departSpeed="0.00" departDelay="17.00" arrival="195.00" arrivalLane="1105938795#0_0" arrivalPos="60.50" arrivalSpeed="11.63" duration="154.00" routeLength="740.74" waitingTime="49.00" waitingCount="2" stopTime="0.00" timeLoss="74.43" rerouteNo="1" devices="vehroute_6668 tripinfo_6668 routing_6668" vType="DEFAULT_VEHTYPE" speedFactor="0.77" vaporized=""/>
    <tripinfo id="6583" depart="6.00" departLane="254297756_0" departPos="5.10" departSpeed="0.00" departDelay="0.00" arrival="197.00" arrivalLane="158468960#0_1" arrivalPos="66.78" arrivalSpeed="29.17" duration="191.00" routeLength="1287.05" waitingTime="72.00" waitingCount="2" stopTime="0.00" timeLoss="100.19" rerouteNo="1" devices="vehroute_6583 tripinfo_6583 routing_6583" vType="DEFAULT_VEHTYPE" speedFactor="1.11" vaporized=""/>
    <tripinfo id="8706" depart="30.00" departLane="417087254_0" departPos="5.10" departSpeed="0.00" departDelay="0.00" arrival="197.00" arrivalLane="403877660#0_0" arrivalPos="218.32" arrivalSpeed="15.47" duration="167.00" routeLength="905.21" waitingTime="90.00" waitingCount="4" stopTime="0.00" timeLoss="116.73" rerouteNo="1" devices="vehroute_8706 tripinfo_8706 routing_8706" vType="DEFAULT_VEHTYPE" speedFactor="1.04" vaporized=""/>
    <tripinfo id="6655" depart="2.00" departLane="502795943#0_0" departPos="5.10" departSpeed="0.00" departDelay="1.00" arrival="198.00" arrivalLane="527829940#0_0" arrivalPos="210.90" arrivalSpeed="29.58" duration="196.00" routeLength="947.04" waitingTime="104.00" waitingCount="4" stopTime="0.00" timeLoss="144.99" rerouteNo="1" devices="vehroute_6655 tripinfo_6655 routing_6655" vType="DEFAULT_VEHTYPE" speedFactor="1.12" vaporized=""/>
    <tripinfo id="6627" depart="1.00" departLane="-225516712#2_0" departPos="5.10" departSpeed="0.00" departDelay="0.00" arrival="200.00" arrivalLane="254758130#0_1" arrivalPos="178.74" arrivalSpeed="17.99" duration="199.00" routeLength="1658.03" waitingTime="65.00" waitingCount="3" stopTime="0.00" timeLoss="97.80" rerouteNo="1" devices="vehroute_6627 tripinfo_6627 routing_6627" vType="DEFAULT_VEHTYPE" speedFactor="0.90" vaporized=""/>
    <tripinfo id="1466" depart="16.00" departLane="-682768769_0" departPos="5.10" departSpeed="0.00" departDelay="0.00" arrival="201.00" arrivalLane="8919908#2_0" arrivalPos="85.15" arrivalSpeed="6.10" duration="185.00" routeLength="1160.06" waitingTime="33.00" waitingCount="1" stopTime="0.00" timeLoss="54.62" rerouteNo="1" devices="vehroute_1466 tripinfo_1466 routing_1466" vType="DEFAULT_VEHTYPE" speedFactor="0.98" vaporized=""/>
    <tripinfo id="8942" depart="36.00" departLane="87235216#0_0" departPos="5.10" departSpeed="0.00" departDelay="0.00" arrival="202.00" arrivalLane="89802447#0_0" arrivalPos="210.73" arrivalSpeed="30.59" duration="166.00" routeLength="1437.91" waitingTime="68.00" waitingCount="2" stopTime="0.00" timeLoss="90.43" rerouteNo="1" devices="vehroute_8942 tripinfo_8942 routing_8942" vType="DEFAULT_VEHTYPE" speedFactor="1.18" vaporized=""/>