<?xml version="1.0" encoding="UTF-8"?>

<!-- generated on 2025-05-09 12:18:57 by Eclipse SUMO GUI Version 1.20.0
<configuration xmlns:xsi="http://www.w3.org/2001/XMLSchema-instance" xsi:noNamespaceSchemaLocation="http://sumo.dlr.de/xsd/sumoConfiguration.xsd">

    <input>
        <net-file value="/Users/beyzaeken/Desktop/sfdigitalmirror/sumoenv/sf_new.net.xml"/>
        <route-files value="/Users/beyzaeken/Desktop/sfdigitalmirror/sumoenv/scenario/normal/2021-01-14/09-10/sf_routes_210114_0910.rou.xml, /Users/beyzaeken/Desktop/sfdigitalmirror/sumoenv/scenario/normal/2021-01-14/09-10/sf_tnc_fleet_210114_0910.rou.xml, /Users/beyzaeken/Desktop/sfdigitalmirror/sumoenv/scenario/normal/2021-01-14/09-10/sf_passenger_requests_210114_0910.rou.xml"/>
        <additional-files value="/Users/beyzaeken/Desktop/sfdigitalmirror/sumoenv/taz_zones.poly.xml"/>
    </input>

    <output>
        <queue-output value="/Users/beyzaeken/Desktop/sfdigitalmirror/sumoenv/scenario/normal/2021-01-14/09-10/queue.xml"/>
        <summary-output value="/Users/beyzaeken/Desktop/sfdigitalmirror/sumoenv/scenario/normal/2021-01-14/09-10/summary.xml"/>
        <tripinfo-output value="/Users/beyzaeken/Desktop/sfdigitalmirror/sumoenv/scenario/normal/2021-01-14/09-10/tripinfos.xml"/>
        <vehroute-output value="/Users/beyzaeken/Desktop/sfdigitalmirror/sumoenv/scenario/normal/2021-01-14/09-10/vehroute.xml"/>
        <save-state.prefix value="/Users/beyzaeken/Desktop/sfdigitalmirror/sumoenv/scenario/normal/2021-01-14/09-10/state"/>
    </output>

    <time>
        <end value="3600"/>
    </time>

    <processing>
        <threads value="4"/>
        <ignore-junction-blocker value="1"/>
        <ignore-route-errors value="true"/>
        <time-to-teleport value="180"/>
    </processing>

    <report>
        <log value="/Users/beyzaeken/Desktop/sfdigitalmirror/sumoenv/scenario/normal/2021-01-14/09-10/sumo_log.txt"/>
        <no-step-log value="true"/>
    </report>

    <traci_server>
        <remote-port value="52213"/>
    </traci_server>

</configuration>
-->

<tripinfos xmlns:xsi="http://www.w3.org/2001/XMLSchema-instance" xsi:noNamespaceSchemaLocation="http://sumo.dlr.de/xsd/tripinfo_file.xsd">
    <tripinfo id="1544" depart="5.00" departLane="678038618_0" departPos="5.10" departSpeed="0.00" departDelay="0.00" arrival="17.00" arrivalLane="678038618_0" arrivalPos="138.21" arrivalSpeed="16.11" duration="12.00" routeLength="133.11" waitingTime="0.00" waitingCount="0" stopTime="0.00" timeLoss="3.81" rerouteNo="1" devices="vehroute_1544 tripinfo_1544 routing_1544" vType="DEFAULT_VEHTYPE" speedFactor="1.05" vaporized=""/>
    <tripinfo id="7260" depart="2.00" departLane="-391862870#2_0" departPos="5.10" departSpeed="0.00" departDelay="0.00" arrival="18.00" arrivalLane="-391862870#2_0" arrivalPos="173.88" arrivalSpeed="13.00" duration="16.00" routeLength="168.78" waitingTime="0.00" waitingCount="0" stopTime="0.00" timeLoss="3.51" rerouteNo="1" devices="vehroute_7260 tripinfo_7260 routing_7260" vType="DEFAULT_VEHTYPE" speedFactor="0.87" vaporized=""/>
    <tripinfo id="5788" depart="10.00" departLane="-8917284#0_0" departPos="5.10" departSpeed="0.00" departDelay="0.00" arrival="31.00" arrivalLane="286003784_0" arrivalPos="104.37" arrivalSpeed="15.21" duration="21.00" routeLength="223.31" waitingTime="0.00" waitingCount="0" stopTime="0.00" timeLoss="6.74" rerouteNo="0" devices="vehroute_5788 tripinfo_5788 routing_5788" vType="DEFAULT_VEHTYPE" speedFactor="1.03" vaporized=""/>
    <tripinfo id="8719" depart="0.00" departLane="-8918969#0_0" departPos="5.10" departSpeed="0.00" departDelay="0.00" arrival="32.00" arrivalLane="-8918969#0_0" arrivalPos="173.50" arrivalSpeed="5.53" duration="32.00" routeLength="168.40" waitingTime="0.00" waitingCount="0" stopTime="0.00" timeLoss="3.69" rerouteNo="1" devices="vehroute_8719 tripinfo_8719 routing_8719" vType="DEFAULT_VEHTYPE" speedFactor="0.89" vaporized=""/>
    <tripinfo id="2055" depart="22.00" departLane="32007659_0" departPos="5.10" departSpeed="0.00" departDelay="0.00" arrival="35.00" arrivalLane="32007659_0" arrivalPos="122.21" arrivalSpeed="11.13" duration="13.00" routeLength="117.11" waitingTime="0.00" waitingCount="0" stopTime="0.00" timeLoss="2.97" rerouteNo="1" devices="vehroute_2055 tripinfo_2055 routing_2055" vType="DEFAULT_VEHTYPE" speedFactor="0.78" vaporized=""/>
    <tripinfo id="8885" depart="23.00" departLane="681660474#0_0" departPos="5.10" departSpeed="0.00" departDelay="0.00" arrival="37.00" arrivalLane="681660474#0_0" arrivalPos="162.33" arrivalSpeed="15.85" duration="14.00" routeLength="157.23" waitingTime="0.00" waitingCount="0" stopTime="0.00" timeLoss="3.65" rerouteNo="1" devices="vehroute_8885 tripinfo_8885 routing_8885" vType="DEFAULT_VEHTYPE" speedFactor="1.06" vaporized=""/>
    <tripinfo id="1486" depart="29.00" departLane="-680438018#1_0" departPos="5.10" departSpeed="0.00" departDelay="0.00" arrival="42.00" arrivalLane="-680438018#1_0" arrivalPos="84.67" arrivalSpeed="7.17" duration="13.00" routeLength="79.57" waitingTime="0.00" waitingCount="0" stopTime="0.00" timeLoss="2.17" rerouteNo="1" devices="vehroute_1486 tripinfo_1486 routing_1486" vType="DEFAULT_VEHTYPE" speedFactor="1.10" vaporized=""/>
    <tripinfo id="5732" depart="25.00" departLane="24547816_0" departPos="5.10" departSpeed="0.00" departDelay="0.00" arrival="47.00" arrivalLane="24547816_0" arrivalPos="141.83" arrivalSpeed="6.28" duration="22.00" routeLength="136.73" waitingTime="0.00" waitingCount="0" stopTime="0.00" timeLoss="3.09" rerouteNo="1" devices="vehroute_5732 tripinfo_5732 routing_5732" vType="DEFAULT_VEHTYPE" speedFactor="1.11" vaporized=""/>
    <tripinfo id="5740" depart="34.00" departLane="254760012#1_0" departPos="5.10" departSpeed="0.00" departDelay="0.00" arrival="48.00" arrivalLane="254760012#1_0" arrivalPos="85.71" arrivalSpeed="6.94" duration="14.00" routeLength="80.61" waitingTime="0.00" waitingCount="0" stopTime="0.00" timeLoss="1.97" rerouteNo="1" devices="vehroute_5740 tripinfo_5740 routing_5740" vType="DEFAULT_VEHTYPE" speedFactor="1.05" vaporized=""/>
    <tripinfo id="7258" depart="34.00" departLane="-254760012#1_0" departPos="5.10" departSpeed="0.00" departDelay="0.00" arrival="49.00" arrivalLane="-254760012#1_0" arrivalPos="85.71" arrivalSpeed="5.47" duration="15.00" routeLength="80.61" waitingTime="0.00" waitingCount="0" stopTime="0.00" timeLoss="2.04" rerouteNo="1" devices="vehroute_7258 tripinfo_7258 routing_7258" vType="DEFAULT_VEHTYPE" speedFactor="0.96" vaporized=""/>
    <tripinfo id="1431" depart="37.00" departLane="-680438021_0" departPos="5.10" departSpeed="0.00" departDelay="0.00" arrival="60.00" arrivalLane="-680438021_0" arrivalPos="139.45" arrivalSpeed="6.05" duration="23.00" routeLength="134.35" waitingTime="0.00" waitingCount="0" stopTime="0.00" timeLoss="2.99" rerouteNo="1" devices="vehroute_1431 tripinfo_1431 routing_1431" vType="DEFAULT_VEHTYPE" speedFactor="1.01" vaporized=""/>
    <tripinfo id="8873" depart="17.00" departLane="948053614_0" departPos="5.10" departSpeed="0.00" departDelay="0.00" arrival="66.00" arrivalLane="948053614_1" arrivalPos="1677.77" arrivalSpeed="45.48" duration="49.00" routeLength="1672.67" waitingTime="0.00" waitingCount="0" stopTime="0.00" timeLoss="11.57" rerouteNo="1" devices="vehroute_8873 tripinfo_8873 routing_8873" vType="DEFAULT_VEHTYPE" speedFactor="1.03" vaporized=""/>
    <tripinfo id="5849" depart="21.00" departLane="-262935286_0" departPos="5.10" departSpeed="0.00" departDelay="0.00" arrival="66.00" arrivalLane="44671098#3_0" arrivalPos="72.89" arrivalSpeed="15.88" duration="45.00" routeLength="351.47" waitingTime="0.00" waitingCount="0" stopTime="0.00" timeLoss="6.75" rerouteNo="1" devices="vehroute_5849 tripinfo_5849 routing_5849" vType="DEFAULT_VEHTYPE" speedFactor="1.06" vaporized=""/>
    <tripinfo id="8759" depart="43.00" departLane="681758091_0" departPos="5.10" departSpeed="0.00" departDelay="0.00" arrival="67.00" arrivalLane="681758091_0" arrivalPos="146.77" arrivalSpeed="5.54" duration="24.00" routeLength="141.67" waitingTime="0.00" waitingCount="0" stopTime="0.00" timeLoss="2.89" rerouteNo="1" devices="vehroute_8759 tripinfo_8759 routing_8759" vType="DEFAULT_VEHTYPE" speedFactor="1.00" vaporized=""/>
    <tripinfo id="7215" depart="28.00" departLane="24547816_0" departPos="5.10" departSpeed="0.00" departDelay="0.00" arrival="69.00" arrivalLane="254760012#1_0" arrivalPos="85.71" arrivalSpeed="6.04" duration="41.00" routeLength="222.44" waitingTime="0.00" waitingCount="0" stopTime="0.00" timeLoss="4.80" rerouteNo="0" devices="vehroute_7215 tripinfo_7215 routing_7215" vType="DEFAULT_VEHTYPE" speedFactor="0.93" vaporized=""/>
    <tripinfo id="2067" depart="54.00" departLane="-680438018#1_0" departPos="5.10" departSpeed="0.00" departDelay="0.00" arrival="69.00" arrivalLane="-680438018#1_0" arrivalPos="84.67" arrivalSpeed="6.64" duration="15.00" routeLength="79.57" waitingTime="0.00" waitingCount="0" stopTime="0.00" timeLoss="2.45" rerouteNo="1" devices="vehroute_2067 tripinfo_2067 routing_2067" vType="DEFAULT_VEHTYPE" speedFactor="1.01" vaporized=""/>
    <tripinfo id="7254" depart="31.00" departLane="-391862870#2_0" departPos="5.10" departSpeed="0.00" departDelay="0.00" arrival="70.00" arrivalLane="24547816_0" arrivalPos="141.83" arrivalSpeed="6.22" duration="39.00" routeLength="310.61" waitingTime="0.00" waitingCount="0" stopTime="0.00" timeLoss="6.88" rerouteNo="0" devices="vehroute_7254 tripinfo_7254 routing_7254" vType="DEFAULT_VEHTYPE" speedFactor="1.00" vaporized=""/>
    <tripinfo id="5803" depart="24.00" departLane="-286003784_0" departPos="5.10" departSpeed="0.00" departDelay="0.00" arrival="79.00" arrivalLane="99278916_0" arrivalPos="55.61" arrivalSpeed="8.91" duration="55.00" routeLength="661.27" waitingTime="0.00" waitingCount="0" stopTime="0.00" timeLoss="7.71" rerouteNo="1" devices="vehroute_5803 tripinfo_5803 routing_5803" vType="DEFAULT_VEHTYPE" speedFactor="0.81" vaporized=""/>
    <tripinfo id="8930" depart="36.00" departLane="681479565_0" departPos="5.10" departSpeed="0.00" departDelay="0.00" arrival="82.00" arrivalLane="E14_0" arrivalPos="277.81" arrivalSpeed="12.77" duration="46.00" routeLength="573.61" waitingTime="0.00" waitingCount="0" stopTime="0.00" timeLoss="8.99" rerouteNo="1" devices="vehroute_8930 tripinfo_8930 routing_8930" vType="DEFAULT_VEHTYPE" speedFactor="0.89" vaporized=""/>
    <tripinfo id="25" depart="56.00" departLane="620169744#0_0" departPos="5.10" departSpeed="0.00" departDelay="0.00" arrival="84.00" arrivalLane="620169744#0_0" arrivalPos="146.25" arrivalSpeed="5.64" duration="28.00" routeLength="141.15" waitingTime="0.00" waitingCount="0" stopTime="0.00" timeLoss="3.51" rerouteNo="1" devices="vehroute_25 tripinfo_25 routing_25" vType="DEFAULT_VEHTYPE" speedFactor="0.89" vaporized=""/>
    <tripinfo id="8915" depart="59.00" departLane="-398849856_0" departPos="5.10" departSpeed="0.00" departDelay="0.00" arrival="86.00" arrivalLane="-398849856_0" arrivalPos="147.00" arrivalSpeed="5.08" duration="27.00" routeLength="141.90" waitingTime="0.00" waitingCount="0" stopTime="0.00" timeLoss="3.97" rerouteNo="1" devices="vehroute_8915 tripinfo_8915 routing_8915" vType="DEFAULT_VEHTYPE" speedFactor="0.93" vaporized=""/>
    <tripinfo id="8601" depart="46.00" departLane="8918969#0_0" departPos="5.10" departSpeed="0.00" departDelay="0.00" arrival="90.00" arrivalLane="8918969#1_0" arrivalPos="109.80" arrivalSpeed="6.28" duration="44.00" routeLength="278.20" waitingTime="0.00" waitingCount="0" stopTime="0.00" timeLoss="5.06" rerouteNo="0" devices="vehroute_8601 tripinfo_8601 routing_8601" vType="DEFAULT_VEHTYPE" speedFactor="1.08" vaporized=""/>
    <tripinfo id="5807" depart="49.00" departLane="-286003784_0" departPos="5.10" departSpeed="0.00" departDelay="0.00" arrival="95.00" arrivalLane="99278916_0" arrivalPos="55.61" arrivalSpeed="11.03" duration="46.00" routeLength="661.27" waitingTime="0.00" waitingCount="0" stopTime="0.00" timeLoss="8.03" rerouteNo="1" devices="vehroute_5807 tripinfo_5807 routing_5807" vType="DEFAULT_VEHTYPE" speedFactor="1.02" vaporized=""/>
    <tripinfo id="1482" depart="58.00" departLane="-682768769_0" departPos="5.10" departSpeed="0.00" departDelay="0.00" arrival="96.00" arrivalLane="-682768769_0" arrivalPos="234.57" arrivalSpeed="7.03" duration="38.00" routeLength="229.47" waitingTime="0.00" waitingCount="0" stopTime="0.00" timeLoss="4.74" rerouteNo="1" devices="vehroute_1482 tripinfo_1482 routing_1482" vType="DEFAULT_VEHTYPE" speedFactor="1.05" vaporized=""/>
    <tripinfo id="6595" depart="24.00" departLane="945326760#0_0" departPos="5.10" departSpeed="0.00" departDelay="0.00" arrival="101.00" arrivalLane="397093352#0_0" arrivalPos="45.61" arrivalSpeed="18.42" duration="77.00" routeLength="678.08" waitingTime="0.00" waitingCount="0" stopTime="0.00" timeLoss="15.14" rerouteNo="1" devices="vehroute_6595 tripinfo_6595 routing_6595" vType="DEFAULT_VEHTYPE" speedFactor="1.02" vaporized=""/>
    <tripinfo id="8647" depart="59.00" departLane="8918969#0_0" departPos="5.10" departSpeed="0.00" departDelay="0.00" arrival="103.00" arrivalLane="8918969#1_0" arrivalPos="109.80" arrivalSpeed="6.56" duration="44.00" routeLength="278.20" waitingTime="0.00" waitingCount="0" stopTime="0.00" timeLoss="4.99" rerouteNo="0" devices="vehroute_8647 tripinfo_8647 routing_8647" vType="DEFAULT_VEHTYPE" speedFactor="1.07" vaporized=""/>
    <tripinfo id="6529" depart="6.00" departLane="254453308#0_0" departPos="5.10" departSpeed="0.00" departDelay="0.00" arrival="107.00" arrivalLane="84654229#0_0" arrivalPos="297.74" arrivalSpeed="26.39" duration="101.00" routeLength="1147.54" waitingTime="21.00" waitingCount="3" stopTime="0.00" timeLoss="57.52" rerouteNo="1" devices="vehroute_6529 tripinfo_6529 routing_6529" vType="DEFAULT_VEHTYPE" speedFactor="1.02" vaporized=""/>
    <tripinfo id="5725" depart="32.00" departLane="1082766087_0" departPos="5.10" departSpeed="0.00" departDelay="0.00" arrival="108.00" arrivalLane="505747779_0" arrivalPos="105.00" arrivalSpeed="6.21" duration="76.00" routeLength="204.35" waitingTime="38.00" waitingCount="1" stopTime="0.00" timeLoss="45.77" rerouteNo="0" devices="vehroute_5725 tripinfo_5725 routing_5725" vType="DEFAULT_VEHTYPE" speedFactor="1.03" vaporized=""/>
    <tripinfo id="2062" depart="38.00" departLane="417187947#0_0" departPos="5.10" departSpeed="0.00" departDelay="2.00" arrival="112.00" arrivalLane="683423171#0_0" arrivalPos="150.30" arrivalSpeed="17.62" duration="74.00" routeLength="257.41" waitingTime="48.00" waitingCount="1" stopTime="0.00" timeLoss="61.31" rerouteNo="0" devices="vehroute_2062 tripinfo_2062 routing_2062" vType="DEFAULT_VEHTYPE" speedFactor="0.93" vaporized=""/>
    <tripinfo id="6690" depart="103.00" departLane="158468715#0_0" departPos="5.10" departSpeed="0.00" departDelay="0.00" arrival="121.00" arrivalLane="158468715#0_0" arrivalPos="299.76" arrivalSpeed="23.65" duration="18.00" routeLength="294.66" waitingTime="0.00" waitingCount="0" stopTime="0.00" timeLoss="5.67" rerouteNo="1" devices="vehroute_6690 tripinfo_6690 routing_6690" vType="DEFAULT_VEHTYPE" speedFactor="0.91" vaporized=""/>
    <tripinfo id="8637" depart="9.00" departLane="8915454_0" departPos="5.10" departSpeed="0.00" departDelay="0.00" arrival="125.00" arrivalLane="225854641_0" arrivalPos="296.72" arrivalSpeed="30.44" duration="116.00" routeLength="1351.89" waitingTime="25.00" waitingCount="1" stopTime="0.00" timeLoss="54.66" rerouteNo="1" devices="vehroute_8637 tripinfo_8637 routing_8637" vType="DEFAULT_VEHTYPE" speedFactor="1.15" vaporized=""/>
    <tripinfo id="6683" depart="7.00" departLane="-417962857_0" departPos="5.10" departSpeed="0.00" departDelay="0.00" arrival="126.00" arrivalLane="225516712#2_0" arrivalPos="116.42" arrivalSpeed="21.10" duration="119.00" routeLength="1296.87" waitingTime="18.00" waitingCount="2" stopTime="0.00" timeLoss="43.89" rerouteNo="1" devices="vehroute_6683 tripinfo_6683 routing_6683" vType="DEFAULT_VEHTYPE" speedFactor="1.05" vaporized=""/>
    <tripinfo id="5871" depart="52.00" departLane="99278916_0" departPos="5.10" departSpeed="0.00" departDelay="0.00" arrival="126.00" arrivalLane="286003784_0" arrivalPos="104.37" arrivalSpeed="16.64" duration="74.00" routeLength="706.57" waitingTime="0.00" waitingCount="0" stopTime="0.00" timeLoss="16.01" rerouteNo="1" devices="vehroute_5871 tripinfo_5871 routing_5871" vType="DEFAULT_VEHTYPE" speedFactor="1.07" vaporized=""/>
    <tripinfo id="8635" depart="5.00" departLane="8918969#0_0" departPos="5.10" departSpeed="0.00" departDelay="0.00" arrival="127.00" arrivalLane="-48570006#0_0" arrivalPos="283.08" arrivalSpeed="5.34" duration="122.00" routeLength="645.87" waitingTime="0.00" waitingCount="0" stopTime="0.00" timeLoss="14.73" rerouteNo="1" devices="vehroute_8635 tripinfo_8635 routing_8635" vType="DEFAULT_VEHTYPE" speedFactor="0.90" vaporized=""/>
    <tripinfo id="7262" depart="33.00" departLane="-419657507#0_0" departPos="5.10" departSpeed="0.00" departDelay="0.00" arrival="127.00" arrivalLane="-419657503_0" arrivalPos="141.40" arrivalSpeed="12.73" duration="94.00" routeLength="708.35" waitingTime="0.00" waitingCount="0" stopTime="0.00" timeLoss="12.74" rerouteNo="1" devices="vehroute_7262 tripinfo_7262 routing_7262" vType="DEFAULT_VEHTYPE" speedFactor="0.89" vaporized=""/>
    <tripinfo id="7218" depart="16.00" departLane="417284150#0_0" departPos="5.10" departSpeed="0.00" departDelay="4.00" arrival="130.00" arrivalLane="-425516678#9_0" arrivalPos="57.66" arrivalSpeed="6.52" duration="114.00" routeLength="830.92" waitingTime="30.00" waitingCount="1" stopTime="0.00" timeLoss="51.27" rerouteNo="1" devices="vehroute_7218 tripinfo_7218 routing_7218" vType="DEFAULT_VEHTYPE" speedFactor="1.05" vaporized=""/>
    <tripinfo id="8841" depart="2.00" departLane="-48570006#0_0" departPos="5.10" departSpeed="0.00" departDelay="0.00" arrival="132.00" arrivalLane="27043786#0_0" arrivalPos="84.59" arrivalSpeed="5.76" duration="130.00" routeLength="721.54" waitingTime="0.00" waitingCount="0" stopTime="0.00" timeLoss="14.67" rerouteNo="1" devices="vehroute_8841 tripinfo_8841 routing_8841" vType="DEFAULT_VEHTYPE" speedFactor="0.94" vaporized=""/>
    <tripinfo id="6728" depart="13.00" departLane="110365012#3_0" departPos="5.10" departSpeed="0.00" departDelay="0.00" arrival="137.00" arrivalLane="-706542863#0_0" arrivalPos="193.44" arrivalSpeed="6.18" duration="124.00" routeLength="703.73" waitingTime="42.00" waitingCount="2" stopTime="0.00" timeLoss="64.41" rerouteNo="1" devices="vehroute_6728 tripinfo_6728 routing_6728" vType="DEFAULT_VEHTYPE" speedFactor="0.99" vaporized=""/>
    <tripinfo id="6530" depart="7.00" departLane="417087426_0" departPos="5.10" departSpeed="0.00" departDelay="0.00" arrival="143.00" arrivalLane="403877660#0_0" arrivalPos="218.32" arrivalSpeed="8.91" duration="136.00" routeLength="781.71" waitingTime="60.00" waitingCount="4" stopTime="0.00" timeLoss="98.62" rerouteNo="1" devices="vehroute_6530 tripinfo_6530 routing_6530" vType="DEFAULT_VEHTYPE" speedFactor="1.09" vaporized=""/>
    <tripinfo id="6714" depart="95.00" departLane="969999009#0_0" departPos="5.10" departSpeed="0.00" departDelay="39.00" arrival="149.00" arrivalLane="-706542863#0_0" arrivalPos="193.44" arrivalSpeed="6.81" duration="54.00" routeLength="367.43" waitingTime="0.00" waitingCount="0" stopTime="0.00" timeLoss="18.90" rerouteNo="0" devices="vehroute_6714 tripinfo_6714 routing_6714" vType="DEFAULT_VEHTYPE" speedFactor="1.15" vaporized=""/>
    <tripinfo id="6677" depart="98.00" departLane="969999009#0_0" departPos="5.10" departSpeed="0.00" departDelay="40.00" arrival="152.00" arrivalLane="-706542863#0_0" arrivalPos="193.44" arrivalSpeed="5.85" duration="54.00" routeLength="367.43" waitingTime="0.00" waitingCount="0" stopTime="0.00" timeLoss="13.32" rerouteNo="0" devices="vehroute_6677 tripinfo_6677 routing_6677" vType="DEFAULT_VEHTYPE" speedFactor="1.00" vaporized=""/>
    <tripinfo id="6717" depart="2.00" departLane="502795544#0_0" departPos="5.10" departSpeed="0.00" departDelay="0.00" arrival="155.00" arrivalLane="771447982#2_1" arrivalPos="56.93" arrivalSpeed="20.67" duration="153.00" routeLength="1288.21" waitingTime="75.00" waitingCount="2" stopTime="0.00" timeLoss="98.73" rerouteNo="1" devices="vehroute_6717 tripinfo_6717 routing_6717" vType="DEFAULT_VEHTYPE" speedFactor="1.05" vaporized=""/>
    <tripinfo id="6640" depart="101.00" departLane="969999009#0_0" departPos="5.10" departSpeed="0.00" departDelay="43.00" arrival="155.00" arrivalLane="-706542863#0_0" arrivalPos="193.44" arrivalSpeed="5.39" duration="54.00" routeLength="367.43" waitingTime="0.00" waitingCount="0" stopTime="0.00" timeLoss="10.81" rerouteNo="0" devices="vehroute_6640 tripinfo_6640 routing_6640" vType="DEFAULT_VEHTYPE" speedFactor="0.94" vaporized=""/>
    <tripinfo id="2053" depart="36.00" departLane="417187947#0_0" departPos="5.10" departSpeed="0.00" departDelay="0.00" arrival="156.00" arrivalLane="514631364#0_0" arrivalPos="103.03" arrivalSpeed="19.38" duration="120.00" routeLength="535.05" waitingTime="51.00" waitingCount="1" stopTime="0.00" timeLoss="71.67" rerouteNo="1" devices="vehroute_2053 tripinfo_2053 routing_2053" vType="DEFAULT_VEHTYPE" speedFactor="1.03" vaporized=""/>
    <tripinfo id="6610" depart="0.00" departLane="403152783#0_0" departPos="5.10" departSpeed="0.00" departDelay="0.00" arrival="157.00" arrivalLane="-706542863#0_0" arrivalPos="193.44" arrivalSpeed="6.02" duration="157.00" routeLength="1078.16" waitingTime="44.00" waitingCount="3" stopTime="0.00" timeLoss="73.41" rerouteNo="1" devices="vehroute_6610 tripinfo_6610 routing_6610" vType="DEFAULT_VEHTYPE" speedFactor="0.94" vaporized=""/>
    <tripinfo id="2006" depart="13.00" departLane="-678038624#1_0" departPos="5.10" departSpeed="0.00" departDelay="0.00" arrival="163.00" arrivalLane="397138671_0" arrivalPos="42.62" arrivalSpeed="24.67" duration="150.00" routeLength="1306.24" waitingTime="22.00" waitingCount="1" stopTime="0.00" timeLoss="43.65" rerouteNo="1" devices="vehroute_2006 tripinfo_2006 routing_2006" vType="DEFAULT_VEHTYPE" speedFactor="1.04" vaporized=""/>
    <tripinfo id="8921" depart="46.00" departLane="344209399#0_0" departPos="5.10" departSpeed="0.00" departDelay="0.00" arrival="178.00" arrivalLane="255170261#0_0" arrivalPos="212.85" arrivalSpeed="20.69" duration="132.00" routeLength="1569.26" waitingTime="3.00" waitingCount="1" stopTime="0.00" timeLoss="27.69" rerouteNo="1" devices="vehroute_8921 tripinfo_8921 routing_8921" vType="DEFAULT_VEHTYPE" speedFactor="1.04" vaporized=""/>
    <tripinfo id="8772" depart="155.00" departLane="-505761791#1_0" departPos="5.10" departSpeed="0.00" departDelay="0.00" arrival="178.00" arrivalLane="-505761791#1_0" arrivalPos="144.64" arrivalSpeed="6.53" duration="23.00" routeLength="139.54" waitingTime="0.00" waitingCount="0" stopTime="0.00" timeLoss="2.97" rerouteNo="1" devices="vehroute_8772 tripinfo_8772 routing_8772" vType="DEFAULT_VEHTYPE" speedFactor="1.07" vaporized=""/>
    <tripinfo id="8931" depart="10.00" departLane="37555378#0_0" departPos="5.10" departSpeed="0.00" departDelay="0.00" arrival="181.00" arrivalLane="255178116#5_0" arrivalPos="82.25" arrivalSpeed="13.68" duration="171.00" routeLength="1466.10" waitingTime="6.00" waitingCount="1" stopTime="0.00" timeLoss="29.49" rerouteNo="1" devices="vehroute_8931 tripinfo_8931 routing_8931" vType="DEFAULT_VEHTYPE" speedFactor="0.91" vaporized=""/>
    <tripinfo id="8644" depart="40.00" departLane="27146311#0_0" departPos="5.10" departSpeed="0.00" departDelay="0.00" arrival="189.00" arrivalLane="619568411#1_0" arrivalPos="50.19" arrivalSpeed="15.36" duration="149.00" routeLength="1065.20" waitingTime="65.00" waitingCount="2" stopTime="0.00" timeLoss="83.83" rerouteNo="1" devices="vehroute_8644 tripinfo_8644 routing_8644" vType="DEFAULT_VEHTYPE" speedFactor="1.05" vaporized=""/>
    <tripinfo id="1407" depart="37.00" departLane="-682768769_0" departPos="5.10" departSpeed="0.00" departDelay="0.00" arrival="193.00" arrivalLane="-682768770#1_0" arrivalPos="49.42" arrivalSpeed="5.80" duration="156.00" routeLength="752.67" waitingTime="39.00" waitingCount="2" stopTime="0.00" timeLoss="62.27" rerouteNo="1" devices="vehroute_1407 tripinfo_1407 routing_1407" vType="DEFAULT_VEHTYPE" speedFactor="0.87" vaporized=""/>
    <tripinfo id="6668" depart="41.00" departLane="945294690#0_0" departPos="5.10" departSpeed="0.00" departDelay="17.00" arrival="194.00" arrivalLane="1105938795#0_0" arrivalPos="60.50" arrivalSpeed="13.26" duration="153.00" routeLength="740.74" waitingTime="56.00" waitingCount="2" stopTime="0.00" timeLoss="80.76" rerouteNo="1" devices="vehroute_6668 tripinfo_6668 routing_6668" vType="DEFAULT_VEHTYPE" speedFactor="0.86" vaporized=""/>
    <tripinfo id="6655" depart="1.00" departLane="502795943#0_0" departPos="5.10" departSpeed="0.00" departDelay="0.00" arrival="198.00" arrivalLane="527829940#0_0" arrivalPos="210.90" arrivalSpeed="26.72" duration="197.00" routeLength="947.04" waitingTime="100.00" waitingCount="4" stopTime="0.00" timeLoss="141.91" rerouteNo="1" devices="vehroute_6655 tripinfo_6655 routing_6655" vType="DEFAULT_VEHTYPE" speedFactor="1.04" vaporized=""/>
    <tripinfo id="8937" depart="46.00" departLane="-505761791#1_0" departPos="5.10" departSpeed="0.00" departDelay="24.00" arrival="200.00" arrivalLane="143666212#0_0" arrivalPos="104.15" arrivalSpeed="5.18" duration="154.00" routeLength="495.22" waitingTime="69.00" waitingCount="2" stopTime="0.00" timeLoss="86.72" rerouteNo="1" devices="vehroute_8937 tripinfo_8937 routing_8937" vType="DEFAULT_VEHTYPE" speedFactor="0.92" vaporized=""/>
    <tripinfo id="8706" depart="30.00" departLane="417087254_0" departPos="5.10" departSpeed="0.00" departDelay="0.00" arrival="203.00" arrivalLane="403877660#0_0" arrivalPos="218.32" arrivalSpeed="13.51" duration="173.00" routeLength="905.21" waitingTime="88.00" waitingCount="2" stopTime="0.00" timeLoss="113.36" rerouteNo="1" devices="vehroute_8706 tripinfo_8706 routing_8706" vType="DEFAULT_VEHTYPE" speedFactor="0.90" vaporized=""/>
    <tripinfo id="8834" depart="5.00" departLane="-228186482#1_0" departPos="5.10" departSpeed="0.00" departDelay="0.00" arrival="204.00" arrivalLane="-E14_0" arrivalPos="277.81" arrivalSpeed="16.44" duration="199.00" routeLength="1240.62" waitingTime="94.00" waitingCount="4" stopTime="0.00" timeLoss="137.78" rerouteNo="1" devices="vehroute_8834 tripinfo_8834 routing_8834" vType="DEFAULT_VEHTYPE" speedFactor="1.11" vaporized=""/>
    <tripinfo id="2008" depart="12.00" departLane="705655282#0_0" departPos="5.10" departSpeed="0.00" departDelay="0.00" arrival="205.00" arrivalLane="-27145608#2_0" arrivalPos="84.27" arrivalSpeed="6.31" duration="193.00" routeLength="3587.19" waitingTime="0.00" waitingCount="0" stopTime="0.00" timeLoss="25.40" rerouteNo="1" devices="vehroute_2008 tripinfo_2008 routing_2008" vType="DEFAULT_VEHTYPE" speedFactor="1.13" vaporized=""/>
    <tripinfo id="6583" depart="6.00" departLane="254297756_0" departPos="5.10" departSpeed="0.00" departDelay="0.00" arrival="206.00" arrivalLane="158468960#0_2" arrivalPos="66.78" arrivalSpeed="26.72" duration="200.00" routeLength="1287.05" waitingTime="68.00" waitingCount="2" stopTime="0.00" timeLoss="98.69" rerouteNo="1" devices="vehroute_6583 tripinfo_6583 routing_6583" vType="DEFAULT_VEHTYPE" speedFactor="1.00" vaporized=""/>
    <tripinfo id="6627" depart="1.00" departLane="-225516712#2_0" departPos="5.10" departSpeed="0.00" departDelay="0.00" arrival="209.00" arrivalLane="254758130#0_1" arrivalPos="178.74" arrivalSpeed="22.47" duration="208.00" routeLength="1658.03" waitingTime="87.00" waitingCount="3" stopTime="0.00" timeLoss="130.08" rerouteNo="1" devices="vehroute_6627 tripinfo_6627 routing_6627" vType="DEFAULT_VEHTYPE" speedFactor="1.18" vaporized=""/>
    <tripinfo id="8879" depart="23.00" departLane="1065793153_0" departPos="5.10" departSpeed="0.00" departDelay="0.00" arrival="211.00" arrivalLane="-427279470#0_0" arrivalPos="196.82" arrivalSpeed="15.85" duration="188.00" routeLength="2000.11" waitingTime="50.00" waitingCount="3" stopTime="0.00" timeLoss="94.42" rerouteNo="1" devices="vehroute_8879 tripinfo_8879 routing_8879" vType="DEFAULT_VEHTYPE" speedFactor="1.05" vaporized=""/>
    <tripinfo id="1510" depart="95.00" departLane="679078833#2_0" departPos="5.10" departSpeed="0.00" departDelay="39.00" arrival="219.00" arrivalLane="417963966#0_1" arrivalPos="217.61" arrivalSpeed="18.63" duration="124.00" routeLength="1352.48" waitingTime="0.00" waitingCount="0" stopTime="0.00" timeLoss="21.37" rerouteNo="1" devices="vehroute_1510 tripinfo_1510 routing_1510" vType="DEFAULT_VEHTYPE" speedFactor="0.97" vaporized=""/>
    <tripinfo id="7212" depart="41.00" departLane="8921357_0" departPos="5.10" departSpeed="0.00" departDelay="0.00" arrival="220.00" arrivalLane="397097601#1_0" arrivalPos="27.46" arrivalSpeed="13.27" duration="179.00" routeLength="1484.41" waitingTime="44.00" waitingCount="2" stopTime="0.00" timeLoss="83.78" rerouteNo="1" devices="vehroute_7212 tripinfo_7212 routing_7212" vType="DEFAULT_VEHTYPE" speedFactor="1.09" vaporized=""/>
    <tripinfo id="5754" depart="11.00" departLane="254971054#1_0" departPos="5.10" departSpeed="0.00" departDelay="0.00" arrival="222.00" arrivalLane="397077537_0" arrivalPos="83.46" arrivalSpeed="17.86" duration="211.00" routeLength="2250.80" waitingTime="24.00" waitingCount="3" stopTime="0.00" timeLoss="62.54" rerouteNo="1" devices="vehroute_5754 tripinfo_5754 routing_5754" vType="DEFAULT_VEHTYPE" speedFactor="1.01" vaporized=""/>