<?xml version="1.0" encoding="UTF-8"?>

<!-- generated on 2025-05-08 15:48:09 by Eclipse SUMO GUI Version 1.20.0
<configuration xmlns:xsi="http://www.w3.org/2001/XMLSchema-instance" xsi:noNamespaceSchemaLocation="http://sumo.dlr.de/xsd/sumoConfiguration.xsd">

    <input>
        <net-file value="/Users/beyzaeken/Desktop/sfdigitalmirror/sumoenv/sf_new.net.xml"/>
        <route-files value="/Users/beyzaeken/Desktop/sfdigitalmirror/sumoenv/scenario/normal/2021-01-14/09-10/sf_routes_210114_0910.rou.xml, /Users/beyzaeken/Desktop/sfdigitalmirror/fleet_vehicles.rou.xml, /Users/beyzaeken/Desktop/sfdigitalmirror/passenger_requests.rou.xml"/>
        <additional-files value="/Users/beyzaeken/Desktop/sfdigitalmirror/sumoenv/taz_zones.poly.xml"/>
    </input>

    <output>
        <queue-output value="/Users/beyzaeken/Desktop/sfdigitalmirror/sumoenv/scenario/normal/2021-01-14/09-10/queue.xml"/>
        <summary-output value="/Users/beyzaeken/Desktop/sfdigitalmirror/sumoenv/scenario/normal/2021-01-14/09-10/summary.xml"/>
        <tripinfo-output value="/Users/beyzaeken/Desktop/sfdigitalmirror/sumoenv/scenario/normal/2021-01-14/09-10/tripinfos.xml"/>
        <vehroute-output value="/Users/beyzaeken/Desktop/sfdigitalmirror/sumoenv/scenario/normal/2021-01-14/09-10/vehroute.xml"/>
        <save-state.prefix value="/Users/beyzaeken/Desktop/sfdigitalmirror/sumoenv/scenario/normal/2021-01-14/09-10/state"/>
    </output>

    <time>
        <end value="3600"/>
    </time>

    <processing>
        <threads value="4"/>
        <ignore-junction-blocker value="1"/>
        <ignore-route-errors value="true"/>
        <time-to-teleport value="180"/>
    </processing>

    <report>
        <log value="/Users/beyzaeken/Desktop/sfdigitalmirror/sumoenv/scenario/normal/2021-01-14/09-10/sumo_log.txt"/>
        <no-step-log value="true"/>
    </report>

    <traci_server>
        <remote-port value="57031"/>
    </traci_server>

</configuration>
-->

<tripinfos xmlns:xsi="http://www.w3.org/2001/XMLSchema-instance" xsi:noNamespaceSchemaLocation="http://sumo.dlr.de/xsd/tripinfo_file.xsd">
    <tripinfo id="1544" depart="5.00" departLane="678038618_0" departPos="5.10" departSpeed="0.00" departDelay="0.00" arrival="17.00" arrivalLane="678038618_0" arrivalPos="138.21" arrivalSpeed="14.94" duration="12.00" routeLength="133.11" waitingTime="0.00" waitingCount="0" stopTime="0.00" timeLoss="3.68" rerouteNo="1" devices="vehroute_1544 tripinfo_1544 routing_1544" vType="DEFAULT_VEHTYPE" speedFactor="1.03" vaporized=""/>
    <tripinfo id="7260" depart="2.00" departLane="-391862870#2_0" departPos="5.10" departSpeed="0.00" departDelay="0.00" arrival="20.00" arrivalLane="-391862870#2_0" arrivalPos="173.88" arrivalSpeed="11.44" duration="18.00" routeLength="168.78" waitingTime="0.00" waitingCount="0" stopTime="0.00" timeLoss="3.06" rerouteNo="1" devices="vehroute_7260 tripinfo_7260 routing_7260" vType="DEFAULT_VEHTYPE" speedFactor="0.74" vaporized=""/>
    <tripinfo id="5788" depart="10.00" departLane="-8917284#0_0" departPos="5.10" departSpeed="0.00" departDelay="0.00" arrival="31.00" arrivalLane="286003784_0" arrivalPos="104.37" arrivalSpeed="12.98" duration="21.00" routeLength="223.31" waitingTime="0.00" waitingCount="0" stopTime="0.00" timeLoss="4.98" rerouteNo="0" devices="vehroute_5788 tripinfo_5788 routing_5788" vType="DEFAULT_VEHTYPE" speedFactor="0.91" vaporized=""/>
    <tripinfo id="8719" depart="0.00" departLane="-8918969#0_0" departPos="5.10" departSpeed="0.00" departDelay="0.00" arrival="33.00" arrivalLane="-8918969#0_0" arrivalPos="173.50" arrivalSpeed="5.33" duration="33.00" routeLength="168.40" waitingTime="0.00" waitingCount="0" stopTime="0.00" timeLoss="4.45" rerouteNo="1" devices="vehroute_8719 tripinfo_8719 routing_8719" vType="DEFAULT_VEHTYPE" speedFactor="0.89" vaporized=""/>
    <tripinfo id="2055" depart="22.00" departLane="32007659_0" departPos="5.10" departSpeed="0.00" departDelay="0.00" arrival="35.00" arrivalLane="32007659_0" arrivalPos="122.21" arrivalSpeed="13.82" duration="13.00" routeLength="117.11" waitingTime="0.00" waitingCount="0" stopTime="0.00" timeLoss="3.92" rerouteNo="1" devices="vehroute_2055 tripinfo_2055 routing_2055" vType="DEFAULT_VEHTYPE" speedFactor="0.92" vaporized=""/>
    <tripinfo id="8885" depart="23.00" departLane="681660474#0_0" departPos="5.10" departSpeed="0.00" departDelay="0.00" arrival="37.00" arrivalLane="681660474#0_0" arrivalPos="162.33" arrivalSpeed="15.31" duration="14.00" routeLength="157.23" waitingTime="0.00" waitingCount="0" stopTime="0.00" timeLoss="3.76" rerouteNo="1" devices="vehroute_8885 tripinfo_8885 routing_8885" vType="DEFAULT_VEHTYPE" speedFactor="1.03" vaporized=""/>
    <tripinfo id="1486" depart="29.00" departLane="-680438018#1_0" departPos="5.10" departSpeed="0.00" departDelay="0.00" arrival="43.00" arrivalLane="-680438018#1_0" arrivalPos="84.67" arrivalSpeed="6.10" duration="14.00" routeLength="79.57" waitingTime="0.00" waitingCount="0" stopTime="0.00" timeLoss="2.56" rerouteNo="1" devices="vehroute_1486 tripinfo_1486 routing_1486" vType="DEFAULT_VEHTYPE" speedFactor="1.05" vaporized=""/>
    <tripinfo id="5732" depart="25.00" departLane="24547816_0" departPos="5.10" departSpeed="0.00" departDelay="0.00" arrival="48.00" arrivalLane="24547816_0" arrivalPos="141.83" arrivalSpeed="5.86" duration="23.00" routeLength="136.73" waitingTime="0.00" waitingCount="0" stopTime="0.00" timeLoss="2.86" rerouteNo="1" devices="vehroute_5732 tripinfo_5732 routing_5732" vType="DEFAULT_VEHTYPE" speedFactor="1.01" vaporized=""/>
    <tripinfo id="5740" depart="34.00" departLane="254760012#1_0" departPos="5.10" departSpeed="0.00" departDelay="0.00" arrival="48.00" arrivalLane="254760012#1_0" arrivalPos="85.71" arrivalSpeed="6.94" duration="14.00" routeLength="80.61" waitingTime="0.00" waitingCount="0" stopTime="0.00" timeLoss="1.82" rerouteNo="1" devices="vehroute_5740 tripinfo_5740 routing_5740" vType="DEFAULT_VEHTYPE" speedFactor="1.05" vaporized=""/>
    <tripinfo id="7258" depart="34.00" departLane="-254760012#1_0" departPos="5.10" departSpeed="0.00" departDelay="0.00" arrival="49.00" arrivalLane="-254760012#1_0" arrivalPos="85.71" arrivalSpeed="5.84" duration="15.00" routeLength="80.61" waitingTime="0.00" waitingCount="0" stopTime="0.00" timeLoss="1.76" rerouteNo="1" devices="vehroute_7258 tripinfo_7258 routing_7258" vType="DEFAULT_VEHTYPE" speedFactor="0.95" vaporized=""/>
    <tripinfo id="7215" depart="28.00" departLane="24547816_0" departPos="5.10" departSpeed="0.00" departDelay="0.00" arrival="63.00" arrivalLane="254760012#1_0" arrivalPos="85.71" arrivalSpeed="7.45" duration="35.00" routeLength="222.44" waitingTime="0.00" waitingCount="0" stopTime="0.00" timeLoss="4.84" rerouteNo="0" devices="vehroute_7215 tripinfo_7215 routing_7215" vType="DEFAULT_VEHTYPE" speedFactor="1.12" vaporized=""/>
    <tripinfo id="8759" depart="43.00" departLane="681758091_0" departPos="5.10" departSpeed="0.00" departDelay="0.00" arrival="63.00" arrivalLane="681758091_0" arrivalPos="146.77" arrivalSpeed="7.33" duration="20.00" routeLength="141.67" waitingTime="0.00" waitingCount="0" stopTime="0.00" timeLoss="2.32" rerouteNo="1" devices="vehroute_8759 tripinfo_8759 routing_8759" vType="DEFAULT_VEHTYPE" speedFactor="1.24" vaporized=""/>
    <tripinfo id="5849" depart="21.00" departLane="-262935286_0" departPos="5.10" departSpeed="0.00" departDelay="0.00" arrival="65.00" arrivalLane="44671098#3_0" arrivalPos="72.89" arrivalSpeed="16.33" duration="44.00" routeLength="351.47" waitingTime="0.00" waitingCount="0" stopTime="0.00" timeLoss="6.38" rerouteNo="1" devices="vehroute_5849 tripinfo_5849 routing_5849" vType="DEFAULT_VEHTYPE" speedFactor="1.08" vaporized=""/>
    <tripinfo id="1431" depart="37.00" departLane="-680438021_0" departPos="5.10" departSpeed="0.00" departDelay="0.00" arrival="67.00" arrivalLane="-680438021_0" arrivalPos="139.45" arrivalSpeed="6.76" duration="30.00" routeLength="134.35" waitingTime="0.00" waitingCount="0" stopTime="0.00" timeLoss="10.47" rerouteNo="1" devices="vehroute_1431 tripinfo_1431 routing_1431" vType="DEFAULT_VEHTYPE" speedFactor="1.04" vaporized=""/>
    <tripinfo id="2067" depart="54.00" departLane="-680438018#1_0" departPos="5.10" departSpeed="0.00" departDelay="0.00" arrival="68.00" arrivalLane="-680438018#1_0" arrivalPos="84.67" arrivalSpeed="6.63" duration="14.00" routeLength="79.57" waitingTime="0.00" waitingCount="0" stopTime="0.00" timeLoss="2.67" rerouteNo="1" devices="vehroute_2067 tripinfo_2067 routing_2067" vType="DEFAULT_VEHTYPE" speedFactor="1.05" vaporized=""/>
    <tripinfo id="8873" depart="17.00" departLane="948053614_0" departPos="5.10" departSpeed="0.00" departDelay="0.00" arrival="70.00" arrivalLane="948053614_0" arrivalPos="1677.77" arrivalSpeed="40.26" duration="53.00" routeLength="1672.67" waitingTime="0.00" waitingCount="0" stopTime="0.00" timeLoss="10.65" rerouteNo="1" devices="vehroute_8873 tripinfo_8873 routing_8873" vType="DEFAULT_VEHTYPE" speedFactor="0.91" vaporized=""/>
    <tripinfo id="5803" depart="24.00" departLane="-286003784_0" departPos="5.10" departSpeed="0.00" departDelay="0.00" arrival="70.00" arrivalLane="99278916_0" arrivalPos="55.61" arrivalSpeed="10.78" duration="46.00" routeLength="661.27" waitingTime="0.00" waitingCount="0" stopTime="0.00" timeLoss="7.42" rerouteNo="1" devices="vehroute_5803 tripinfo_5803 routing_5803" vType="DEFAULT_VEHTYPE" speedFactor="1.00" vaporized=""/>
    <tripinfo id="7254" depart="34.00" departLane="-391862870#2_0" departPos="5.10" departSpeed="0.00" departDelay="3.00" arrival="75.00" arrivalLane="24547816_0" arrivalPos="141.83" arrivalSpeed="5.36" duration="41.00" routeLength="310.61" waitingTime="0.00" waitingCount="0" stopTime="0.00" timeLoss="6.16" rerouteNo="0" devices="vehroute_7254 tripinfo_7254 routing_7254" vType="DEFAULT_VEHTYPE" speedFactor="0.93" vaporized=""/>
    <tripinfo id="8930" depart="36.00" departLane="681479565_0" departPos="5.10" departSpeed="0.00" departDelay="0.00" arrival="75.00" arrivalLane="E14_0" arrivalPos="277.81" arrivalSpeed="17.19" duration="39.00" routeLength="573.61" waitingTime="0.00" waitingCount="0" stopTime="0.00" timeLoss="9.70" rerouteNo="1" devices="vehroute_8930 tripinfo_8930 routing_8930" vType="DEFAULT_VEHTYPE" speedFactor="1.13" vaporized=""/>
    <tripinfo id="25" depart="56.00" departLane="620169744#0_0" departPos="5.10" departSpeed="0.00" departDelay="0.00" arrival="82.00" arrivalLane="620169744#0_0" arrivalPos="146.25" arrivalSpeed="5.60" duration="26.00" routeLength="141.15" waitingTime="0.00" waitingCount="0" stopTime="0.00" timeLoss="3.57" rerouteNo="1" devices="vehroute_25 tripinfo_25 routing_25" vType="DEFAULT_VEHTYPE" speedFactor="0.96" vaporized=""/>
    <tripinfo id="8915" depart="59.00" departLane="-398849856_0" departPos="5.10" departSpeed="0.00" departDelay="0.00" arrival="82.00" arrivalLane="-398849856_0" arrivalPos="147.00" arrivalSpeed="7.02" duration="23.00" routeLength="141.90" waitingTime="0.00" waitingCount="0" stopTime="0.00" timeLoss="3.53" rerouteNo="1" devices="vehroute_8915 tripinfo_8915 routing_8915" vType="DEFAULT_VEHTYPE" speedFactor="1.12" vaporized=""/>
    <tripinfo id="8601" depart="46.00" departLane="8918969#0_0" departPos="5.10" departSpeed="0.00" departDelay="0.00" arrival="92.00" arrivalLane="8918969#1_0" arrivalPos="109.80" arrivalSpeed="6.03" duration="46.00" routeLength="278.20" waitingTime="0.00" waitingCount="0" stopTime="0.00" timeLoss="6.23" rerouteNo="0" devices="vehroute_8601 tripinfo_8601 routing_8601" vType="DEFAULT_VEHTYPE" speedFactor="1.05" vaporized=""/>
    <tripinfo id="5807" depart="49.00" departLane="-286003784_0" departPos="5.10" departSpeed="0.00" departDelay="0.00" arrival="93.00" arrivalLane="99278916_0" arrivalPos="55.61" arrivalSpeed="12.82" duration="44.00" routeLength="661.27" waitingTime="0.00" waitingCount="0" stopTime="0.00" timeLoss="10.47" rerouteNo="1" devices="vehroute_5807 tripinfo_5807 routing_5807" vType="DEFAULT_VEHTYPE" speedFactor="1.17" vaporized=""/>
    <tripinfo id="2010" depart="16.00" departLane="8919908#2_0" departPos="5.10" departSpeed="0.00" departDelay="0.00" arrival="96.00" arrivalLane="-680438018#1_0" arrivalPos="84.67" arrivalSpeed="6.43" duration="80.00" routeLength="635.82" waitingTime="3.00" waitingCount="1" stopTime="0.00" timeLoss="19.45" rerouteNo="1" devices="vehroute_2010 tripinfo_2010 routing_2010" vType="DEFAULT_VEHTYPE" speedFactor="1.08" vaporized=""/>
    <tripinfo id="1482" depart="58.00" departLane="-682768769_0" departPos="5.10" departSpeed="0.00" departDelay="0.00" arrival="100.00" arrivalLane="-682768769_0" arrivalPos="234.57" arrivalSpeed="5.89" duration="42.00" routeLength="229.47" waitingTime="0.00" waitingCount="0" stopTime="0.00" timeLoss="4.66" rerouteNo="1" devices="vehroute_1482 tripinfo_1482 routing_1482" vType="DEFAULT_VEHTYPE" speedFactor="0.92" vaporized=""/>
    <tripinfo id="6595" depart="24.00" departLane="945326760#0_0" departPos="5.10" departSpeed="0.00" departDelay="0.00" arrival="102.00" arrivalLane="397093352#0_0" arrivalPos="45.61" arrivalSpeed="15.08" duration="78.00" routeLength="678.08" waitingTime="0.00" waitingCount="0" stopTime="0.00" timeLoss="15.19" rerouteNo="1" devices="vehroute_6595 tripinfo_6595 routing_6595" vType="DEFAULT_VEHTYPE" speedFactor="1.01" vaporized=""/>
    <tripinfo id="8841" depart="2.00" departLane="-48570006#0_0" departPos="5.10" departSpeed="0.00" departDelay="0.00" arrival="107.00" arrivalLane="27043786#0_0" arrivalPos="84.59" arrivalSpeed="6.96" duration="105.00" routeLength="721.54" waitingTime="0.00" waitingCount="0" stopTime="0.00" timeLoss="9.90" rerouteNo="1" devices="vehroute_8841 tripinfo_8841 routing_8841" vType="DEFAULT_VEHTYPE" speedFactor="1.14" vaporized=""/>
    <tripinfo id="6529" depart="6.00" departLane="254453308#0_0" departPos="5.10" departSpeed="0.00" departDelay="0.00" arrival="107.00" arrivalLane="84654229#0_2" arrivalPos="297.74" arrivalSpeed="32.17" duration="101.00" routeLength="1147.54" waitingTime="29.00" waitingCount="2" stopTime="0.00" timeLoss="64.51" rerouteNo="1" devices="vehroute_6529 tripinfo_6529 routing_6529" vType="DEFAULT_VEHTYPE" speedFactor="1.24" vaporized=""/>
    <tripinfo id="5725" depart="32.00" departLane="1082766087_0" departPos="5.10" departSpeed="0.00" departDelay="0.00" arrival="108.00" arrivalLane="505747779_0" arrivalPos="105.00" arrivalSpeed="6.39" duration="76.00" routeLength="204.35" waitingTime="38.00" waitingCount="1" stopTime="0.00" timeLoss="45.18" rerouteNo="0" devices="vehroute_5725 tripinfo_5725 routing_5725" vType="DEFAULT_VEHTYPE" speedFactor="1.00" vaporized=""/>
    <tripinfo id="8647" depart="59.00" departLane="8918969#0_0" departPos="5.10" departSpeed="0.00" departDelay="0.00" arrival="111.00" arrivalLane="8918969#1_0" arrivalPos="109.80" arrivalSpeed="5.14" duration="52.00" routeLength="278.20" waitingTime="0.00" waitingCount="0" stopTime="0.00" timeLoss="7.26" rerouteNo="0" devices="vehroute_8647 tripinfo_8647 routing_8647" vType="DEFAULT_VEHTYPE" speedFactor="0.93" vaporized=""/>
    <tripinfo id="2062" depart="37.00" departLane="417187947#0_0" departPos="5.10" departSpeed="0.00" departDelay="1.00" arrival="112.00" arrivalLane="683423171#0_0" arrivalPos="150.30" arrivalSpeed="20.88" duration="75.00" routeLength="257.41" waitingTime="49.00" waitingCount="1" stopTime="0.00" timeLoss="64.09" rerouteNo="0" devices="vehroute_2062 tripinfo_2062 routing_2062" vType="DEFAULT_VEHTYPE" speedFactor="1.08" vaporized=""/>
    <tripinfo id="8635" depart="5.00" departLane="8918969#0_0" departPos="5.10" departSpeed="0.00" departDelay="0.00" arrival="113.00" arrivalLane="-48570006#0_0" arrivalPos="283.08" arrivalSpeed="6.24" duration="108.00" routeLength="645.87" waitingTime="0.00" waitingCount="0" stopTime="0.00" timeLoss="11.94" rerouteNo="1" devices="vehroute_8635 tripinfo_8635 routing_8635" vType="DEFAULT_VEHTYPE" speedFactor="1.01" vaporized=""/>
    <tripinfo id="7262" depart="33.00" departLane="-419657507#0_0" departPos="5.10" departSpeed="0.00" departDelay="0.00" arrival="114.00" arrivalLane="-419657503_0" arrivalPos="141.40" arrivalSpeed="16.13" duration="81.00" routeLength="708.35" waitingTime="0.00" waitingCount="0" stopTime="0.00" timeLoss="13.88" rerouteNo="1" devices="vehroute_7262 tripinfo_7262 routing_7262" vType="DEFAULT_VEHTYPE" speedFactor="1.08" vaporized=""/>
    <tripinfo id="6690" depart="103.00" departLane="158468715#0_0" departPos="5.10" departSpeed="0.00" departDelay="0.00" arrival="122.00" arrivalLane="158468715#0_0" arrivalPos="299.76" arrivalSpeed="23.94" duration="19.00" routeLength="294.66" waitingTime="0.00" waitingCount="0" stopTime="0.00" timeLoss="6.71" rerouteNo="1" devices="vehroute_6690 tripinfo_6690 routing_6690" vType="DEFAULT_VEHTYPE" speedFactor="0.91" vaporized=""/>
    <tripinfo id="6683" depart="7.00" departLane="-417962857_0" departPos="5.10" departSpeed="0.00" departDelay="0.00" arrival="125.00" arrivalLane="225516712#2_0" arrivalPos="116.42" arrivalSpeed="21.57" duration="118.00" routeLength="1296.87" waitingTime="19.00" waitingCount="2" stopTime="0.00" timeLoss="45.59" rerouteNo="1" devices="vehroute_6683 tripinfo_6683 routing_6683" vType="DEFAULT_VEHTYPE" speedFactor="1.09" vaporized=""/>
    <tripinfo id="5871" depart="52.00" departLane="99278916_0" departPos="5.10" departSpeed="0.00" departDelay="0.00" arrival="126.00" arrivalLane="286003784_0" arrivalPos="104.37" arrivalSpeed="15.42" duration="74.00" routeLength="706.57" waitingTime="0.00" waitingCount="0" stopTime="0.00" timeLoss="15.94" rerouteNo="1" devices="vehroute_5871 tripinfo_5871 routing_5871" vType="DEFAULT_VEHTYPE" speedFactor="1.06" vaporized=""/>
    <tripinfo id="7218" depart="12.00" departLane="417284150#0_0" departPos="5.10" departSpeed="0.00" departDelay="0.00" arrival="133.00" arrivalLane="-425516678#9_0" arrivalPos="57.66" arrivalSpeed="6.05" duration="121.00" routeLength="830.92" waitingTime="32.00" waitingCount="1" stopTime="0.00" timeLoss="52.31" rerouteNo="1" devices="vehroute_7218 tripinfo_7218 routing_7218" vType="DEFAULT_VEHTYPE" speedFactor="0.96" vaporized=""/>
    <tripinfo id="6728" depart="13.00" departLane="110365012#3_0" departPos="5.10" departSpeed="0.00" departDelay="0.00" arrival="134.00" arrivalLane="-706542863#0_0" arrivalPos="193.44" arrivalSpeed="6.55" duration="121.00" routeLength="703.73" waitingTime="44.00" waitingCount="2" stopTime="0.00" timeLoss="66.55" rerouteNo="1" devices="vehroute_6728 tripinfo_6728 routing_6728" vType="DEFAULT_VEHTYPE" speedFactor="1.09" vaporized=""/>
    <tripinfo id="6714" depart="95.00" departLane="969999009#0_0" departPos="5.10" departSpeed="0.00" departDelay="39.00" arrival="141.00" arrivalLane="-706542863#0_0" arrivalPos="193.44" arrivalSpeed="7.36" duration="46.00" routeLength="367.43" waitingTime="0.00" waitingCount="0" stopTime="0.00" timeLoss="10.16" rerouteNo="0" devices="vehroute_6714 tripinfo_6714 routing_6714" vType="DEFAULT_VEHTYPE" speedFactor="1.13" vaporized=""/>
    <tripinfo id="6530" depart="7.00" departLane="417087426_0" departPos="5.10" departSpeed="0.00" departDelay="0.00" arrival="143.00" arrivalLane="403877660#0_0" arrivalPos="218.32" arrivalSpeed="9.70" duration="136.00" routeLength="781.71" waitingTime="58.00" waitingCount="4" stopTime="0.00" timeLoss="88.32" rerouteNo="1" devices="vehroute_6530 tripinfo_6530 routing_6530" vType="DEFAULT_VEHTYPE" speedFactor="0.85" vaporized=""/>
    <tripinfo id="6677" depart="98.00" departLane="969999009#0_0" departPos="5.10" departSpeed="0.00" departDelay="40.00" arrival="146.00" arrivalLane="-706542863#0_0" arrivalPos="193.44" arrivalSpeed="6.11" duration="48.00" routeLength="367.43" waitingTime="0.00" waitingCount="0" stopTime="0.00" timeLoss="8.34" rerouteNo="0" devices="vehroute_6677 tripinfo_6677 routing_6677" vType="DEFAULT_VEHTYPE" speedFactor="1.01" vaporized=""/>
    <tripinfo id="6610" depart="0.00" departLane="403152783#0_0" departPos="5.10" departSpeed="0.00" departDelay="0.00" arrival="152.00" arrivalLane="-706542863#0_0" arrivalPos="193.44" arrivalSpeed="6.09" duration="152.00" routeLength="1078.16" waitingTime="43.00" waitingCount="3" stopTime="0.00" timeLoss="68.19" rerouteNo="1" devices="vehroute_6610 tripinfo_6610 routing_6610" vType="DEFAULT_VEHTYPE" speedFactor="0.94" vaporized=""/>
    <tripinfo id="6717" depart="2.00" departLane="502795544#0_0" departPos="5.10" departSpeed="0.00" departDelay="0.00" arrival="155.00" arrivalLane="771447982#2_1" arrivalPos="56.93" arrivalSpeed="19.17" duration="153.00" routeLength="1288.21" waitingTime="75.00" waitingCount="2" stopTime="0.00" timeLoss="99.26" rerouteNo="1" devices="vehroute_6717 tripinfo_6717 routing_6717" vType="DEFAULT_VEHTYPE" speedFactor="1.05" vaporized=""/>
    <tripinfo id="2053" depart="36.00" departLane="417187947#0_0" departPos="5.10" departSpeed="0.00" departDelay="0.00" arrival="155.00" arrivalLane="514631364#0_0" arrivalPos="103.03" arrivalSpeed="19.16" duration="119.00" routeLength="535.05" waitingTime="49.00" waitingCount="1" stopTime="0.00" timeLoss="71.45" rerouteNo="1" devices="vehroute_2053 tripinfo_2053 routing_2053" vType="DEFAULT_VEHTYPE" speedFactor="1.03" vaporized=""/>
    <tripinfo id="2006" depart="13.00" departLane="-678038624#1_0" departPos="5.10" departSpeed="0.00" departDelay="0.00" arrival="173.00" arrivalLane="397138671_1" arrivalPos="42.62" arrivalSpeed="7.60" duration="160.00" routeLength="1306.24" waitingTime="9.00" waitingCount="1" stopTime="0.00" timeLoss="35.31" rerouteNo="1" devices="vehroute_2006 tripinfo_2006 routing_2006" vType="DEFAULT_VEHTYPE" speedFactor="0.88" vaporized=""/>
    <tripinfo id="8931" depart="10.00" departLane="37555378#0_0" departPos="5.10" departSpeed="0.00" departDelay="0.00" arrival="180.00" arrivalLane="255178116#5_0" arrivalPos="82.25" arrivalSpeed="12.96" duration="170.00" routeLength="1466.10" waitingTime="8.00" waitingCount="1" stopTime="0.00" timeLoss="27.51" rerouteNo="1" devices="vehroute_8931 tripinfo_8931 routing_8931" vType="DEFAULT_VEHTYPE" speedFactor="0.90" vaporized=""/>
    <tripinfo id="8772" depart="155.00" departLane="-505761791#1_0" departPos="5.10" departSpeed="0.00" departDelay="0.00" arrival="181.00" arrivalLane="-505761791#1_0" arrivalPos="144.64" arrivalSpeed="5.31" duration="26.00" routeLength="139.54" waitingTime="0.00" waitingCount="0" stopTime="0.00" timeLoss="3.63" rerouteNo="1" devices="vehroute_8772 tripinfo_8772 routing_8772" vType="DEFAULT_VEHTYPE" speedFactor="0.96" vaporized=""/>
    <tripinfo id="8637" depart="9.00" departLane="8915454_0" departPos="5.10" departSpeed="0.00" departDelay="0.00" arrival="188.00" arrivalLane="225854641_0" arrivalPos="296.72" arrivalSpeed="23.01" duration="179.00" routeLength="1351.89" waitingTime="67.00" waitingCount="2" stopTime="0.00" timeLoss="100.49" rerouteNo="1" devices="vehroute_8637 tripinfo_8637 routing_8637" vType="DEFAULT_VEHTYPE" speedFactor="0.89" vaporized=""/>
    <tripinfo id="5800" depart="16.00" departLane="30029703#4_0" departPos="5.10" departSpeed="0.00" departDelay="0.00" arrival="189.00" arrivalLane="397146715#0_0" arrivalPos="98.90" arrivalSpeed="15.20" duration="173.00" routeLength="1308.42" waitingTime="46.00" waitingCount="2" stopTime="0.00" timeLoss="79.26" rerouteNo="1" devices="vehroute_5800 tripinfo_5800 routing_5800" vType="DEFAULT_VEHTYPE" speedFactor="0.98" vaporized=""/>
    <tripinfo id="6668" depart="41.00" departLane="945294690#0_0" departPos="5.10" departSpeed="0.00" departDelay="17.00" arrival="192.00" arrivalLane="1105938795#0_0" arrivalPos="60.50" arrivalSpeed="15.46" duration="151.00" routeLength="740.74" waitingTime="66.00" waitingCount="2" stopTime="0.00" timeLoss="90.92" rerouteNo="1" devices="vehroute_6668 tripinfo_6668 routing_6668" vType="DEFAULT_VEHTYPE" speedFactor="1.02" vaporized=""/>
    <tripinfo id="8706" depart="30.00" departLane="417087254_0" departPos="5.10" departSpeed="0.00" departDelay="0.00" arrival="195.00" arrivalLane="403877660#0_0" arrivalPos="218.32" arrivalSpeed="15.61" duration="165.00" routeLength="905.21" waitingTime="92.00" waitingCount="2" stopTime="0.00" timeLoss="112.04" rerouteNo="1" devices="vehroute_8706 tripinfo_8706 routing_8706" vType="DEFAULT_VEHTYPE" speedFactor="1.01" vaporized=""/>
    <tripinfo id="1407" depart="37.00" departLane="-682768769_0" departPos="5.10" departSpeed="0.00" departDelay="0.00" arrival="195.00" arrivalLane="-682768770#1_0" arrivalPos="49.42" arrivalSpeed="5.70" duration="158.00" routeLength="752.67" waitingTime="45.00" waitingCount="3" stopTime="0.00" timeLoss="76.36" rerouteNo="1" devices="vehroute_1407 tripinfo_1407 routing_1407" vType="DEFAULT_VEHTYPE" speedFactor="1.01" vaporized=""/>
    <tripinfo id="8937" depart="46.00" departLane="-505761791#1_0" departPos="5.10" departSpeed="0.00" departDelay="24.00" arrival="197.00" arrivalLane="143666212#0_0" arrivalPos="104.15" arrivalSpeed="6.03" duration="151.00" routeLength="495.22" waitingTime="80.00" waitingCount="2" stopTime="0.00" timeLoss="92.59" rerouteNo="1" devices="vehroute_8937 tripinfo_8937 routing_8937" vType="DEFAULT_VEHTYPE" speedFactor="1.06" vaporized=""/>
    <tripinfo id="6655" depart="1.00" departLane="502795943#0_0" departPos="5.10" departSpeed="0.00" departDelay="0.00" arrival="198.00" arrivalLane="527829940#0_0" arrivalPos="210.90" arrivalSpeed="24.35" duration="197.00" routeLength="947.04" waitingTime="97.00" waitingCount="4" stopTime="0.00" timeLoss="136.03" rerouteNo="1" devices="vehroute_6655 tripinfo_6655 routing_6655" vType="DEFAULT_VEHTYPE" speedFactor="0.92" vaporized=""/>
    <tripinfo id="1510" depart="94.00" departLane="679078833#2_0" departPos="5.10" departSpeed="0.00" departDelay="38.00" arrival="200.00" arrivalLane="417963966#0_1" arrivalPos="217.61" arrivalSpeed="18.54" duration="106.00" routeLength="1352.48" waitingTime="0.00" waitingCount="0" stopTime="0.00" timeLoss="15.26" rerouteNo="1" devices="vehroute_1510 tripinfo_1510 routing_1510" vType="DEFAULT_VEHTYPE" speedFactor="1.10" vaporized=""/>
    <tripinfo id="1466" depart="16.00" departLane="-682768769_0" departPos="5.10" departSpeed="0.00" departDelay="0.00" arrival="202.00" arrivalLane="8919908#2_0" arrivalPos="85.15" arrivalSpeed="6.50" duration="186.00" routeLength="1160.06" waitingTime="31.00" waitingCount="1" stopTime="0.00" timeLoss="53.72" rerouteNo="1" devices="vehroute_1466 tripinfo_1466 routing_1466" vType="DEFAULT_VEHTYPE" speedFactor="0.97" vaporized=""/>
    <tripinfo id="8942" depart="36.00" departLane="87235216#0_0" departPos="5.10" departSpeed="0.00" departDelay="0.00" arrival="203.00" arrivalLane="89802447#0_0" arrivalPos="210.73" arrivalSpeed="30.56" duration="167.00" routeLength="1437.91" waitingTime="63.00" waitingCount="2" stopTime="0.00" timeLoss="88.54" rerouteNo="1" devices="vehroute_8942 tripinfo_8942 routing_8942" vType="DEFAULT_VEHTYPE" speedFactor="1.15" vaporized=""/>
    <tripinfo id="6583" depart="6.00" departLane="254297756_0" departPos="5.10" departSpeed="0.00" departDelay="0.00" arrival="205.00" arrivalLane="158468960#0_2" arrivalPos="66.78" arrivalSpeed="25.70" duration="199.00" routeLength="1287.05" waitingTime="62.00" waitingCount="2" stopTime="0.00" timeLoss="94.47" rerouteNo="1" devices="vehroute_6583 tripinfo_6583 routing_6583" vType="DEFAULT_VEHTYPE" speedFactor="0.96" vaporized=""/>
    <tripinfo id="8834" depart="5.00" departLane="-228186482#1_0" departPos="5.10" departSpeed="0.00" departDelay="0.00" arrival="208.00" arrivalLane="-E14_0" arrivalPos="277.81" arrivalSpeed="13.86" duration="203.00" routeLength="1240.62" waitingTime="88.00" waitingCount="4" stopTime="0.00" timeLoss="129.44" rerouteNo="1" devices="vehroute_8834 tripinfo_8834 routing_8834" vType="DEFAULT_VEHTYPE" speedFactor="0.93" vaporized=""/>
    <tripinfo id="6640" depart="132.00" departLane="969999009#0_0" departPos="5.10" departSpeed="0.00" departDelay="74.00" arrival="211.00" arrivalLane="-706542863#0_0" arrivalPos="193.44" arrivalSpeed="6.07" duration="79.00" routeLength="367.43" waitingTime="30.00" waitingCount="1" stopTime="0.00" timeLoss="40.79" rerouteNo="0" devices="vehroute_6640 tripinfo_6640 routing_6640" vType="DEFAULT_VEHTYPE" speedFactor="1.05" vaporized=""/>
    <tripinfo id="6627" depart="1.00" departLane="-225516712#2_0" departPos="5.10" departSpeed="0.00" departDelay="0.00" arrival="213.00" arrivalLane="254758130#0_0" arrivalPos="178.74" arrivalSpeed="19.60" duration="212.00" routeLength="1658.03" waitingTime="80.00" waitingCount="3" stopTime="0.00" timeLoss="118.64" rerouteNo="1" devices="vehroute_6627 tripinfo_6627 routing_6627" vType="DEFAULT_VEHTYPE" speedFactor="0.99" vaporized=""/>
    <tripinfo id="8879" depart="23.00" departLane="1065793153_0" departPos="5.10" departSpeed="0.00" departDelay="0.00" arrival="213.00" arrivalLane="-427279470#0_0" arrivalPos="196.82" arrivalSpeed="15.18" duration="190.00" routeLength="2000.11" waitingTime="50.00" waitingCount="3" stopTime="0.00" timeLoss="92.31" rerouteNo="1" devices="vehroute_8879 tripinfo_8879 routing_8879" vType="DEFAULT_VEHTYPE" speedFactor="1.00" vaporized=""/>
    <tripinfo id="7207" depart="56.00" departLane="417087474_0" departPos="5.10" departSpeed="0.00" departDelay="0.00" arrival="221.00" arrivalLane="8917349_2" arrivalPos="160.42" arrivalSpeed="23.02" duration="165.00" routeLength="1058.34" waitingTime="89.00" waitingCount="2" stopTime="0.00" timeLoss="119.57" rerouteNo="1" devices="vehroute_7207 tripinfo_7207 routing_7207" vType="DEFAULT_VEHTYPE" speedFactor="1.15" vaporized=""/>
    <tripinfo id="7212" depart="41.00" departLane="8921357_0" departPos="5.10" departSpeed="0.00" departDelay="0.00" arrival="223.00" arrivalLane="397097601#1_0" arrivalPos="27.46" arrivalSpeed="13.34" duration="182.00" routeLength="1484.41" waitingTime="37.00" waitingCount="3" stopTime="0.00" timeLoss="79.04" rerouteNo="1" devices="vehroute_7212 tripinfo_7212 routing_7212" vType="DEFAULT_VEHTYPE" speedFactor="1.01" vaporized=""/>