<?xml version="1.0" encoding="UTF-8"?>

<!-- generated on 2025-05-08 09:29:58 by Eclipse SUMO GUI Version 1.20.0
<configuration xmlns:xsi="http://www.w3.org/2001/XMLSchema-instance" xsi:noNamespaceSchemaLocation="http://sumo.dlr.de/xsd/sumoConfiguration.xsd">

    <input>
        <net-file value="/Users/beyzaeken/Desktop/sfdigitalmirror/sumoenv/sf_new.net.xml"/>
        <route-files value="/Users/beyzaeken/Desktop/sfdigitalmirror/sumoenv/scenario/normal/2021-01-14/09-10/sf_routes_210114_0910.rou.xml, /Users/beyzaeken/Desktop/sfdigitalmirror/fleet_vehicles.rou.xml, /Users/beyzaeken/Desktop/sfdigitalmirror/passenger_requests.rou.xml"/>
        <additional-files value="/Users/beyzaeken/Desktop/sfdigitalmirror/sumoenv/taz_zones.poly.xml"/>
    </input>

    <output>
        <queue-output value="/Users/beyzaeken/Desktop/sfdigitalmirror/sumoenv/scenario/normal/2021-01-14/09-10/queue.xml"/>
        <summary-output value="/Users/beyzaeken/Desktop/sfdigitalmirror/sumoenv/scenario/normal/2021-01-14/09-10/summary.xml"/>
        <tripinfo-output value="/Users/beyzaeken/Desktop/sfdigitalmirror/sumoenv/scenario/normal/2021-01-14/09-10/tripinfos.xml"/>
        <vehroute-output value="/Users/beyzaeken/Desktop/sfdigitalmirror/sumoenv/scenario/normal/2021-01-14/09-10/vehroute.xml"/>
        <save-state.prefix value="/Users/beyzaeken/Desktop/sfdigitalmirror/sumoenv/scenario/normal/2021-01-14/09-10/state"/>
    </output>

    <time>
        <end value="3600"/>
    </time>

    <processing>
        <threads value="4"/>
        <ignore-junction-blocker value="1"/>
        <ignore-route-errors value="true"/>
        <time-to-teleport value="35"/>
    </processing>

    <report>
        <log value="/Users/beyzaeken/Desktop/sfdigitalmirror/sumoenv/scenario/normal/2021-01-14/09-10/sumo_log.txt"/>
        <no-step-log value="true"/>
    </report>

    <traci_server>
        <remote-port value="51278"/>
    </traci_server>

</configuration>
-->

<routes xmlns:xsi="http://www.w3.org/2001/XMLSchema-instance" xsi:noNamespaceSchemaLocation="http://sumo.dlr.de/xsd/routes_file.xsd">
    <vehicle id="7260" depart="2.00" arrival="16.00">
        <route edges="-391862870#2"/>
    </vehicle>

    <vehicle id="1544" depart="5.00" arrival="18.00">
        <route edges="678038618"/>
    </vehicle>

    <vehicle id="5788" depart="10.00" arrival="31.00">
        <route edges="-8917284#0 286003784"/>
    </vehicle>

    <vehicle id="2055" depart="22.00" arrival="33.00">
        <route edges="32007659"/>
    </vehicle>

    <vehicle id="8719" depart="0.00" arrival="34.00">
        <route edges="-8918969#0"/>
    </vehicle>

    <vehicle id="8885" depart="23.00" arrival="36.00">
        <route edges="681660474#0"/>
    </vehicle>

    <vehicle id="1486" depart="29.00" arrival="41.00">
        <route edges="-680438018#1"/>
    </vehicle>

    <vehicle id="5740" depart="34.00" arrival="49.00">
        <route edges="254760012#1"/>
    </vehicle>

    <vehicle id="7258" depart="34.00" arrival="51.00">
        <route edges="-254760012#1"/>
    </vehicle>

    <vehicle id="5732" depart="25.00" arrival="52.00">
        <route edges="24547816"/>
    </vehicle>

    <vehicle id="1431" depart="37.00" arrival="59.00">
        <route edges="-680438021"/>
    </vehicle>

    <vehicle id="8759" depart="43.00" arrival="67.00">
        <route edges="681758091"/>
    </vehicle>

    <vehicle id="5849" depart="21.00" arrival="70.00">
        <route edges="-262935286 44671098#2 44671098#3"/>
    </vehicle>

    <vehicle id="7215" depart="28.00" arrival="70.00">
        <route edges="24547816 254760012#1"/>
    </vehicle>

    <vehicle id="5803" depart="24.00" arrival="71.00">
        <route edges="-286003784 -133856274 -396973463 133856232 396968570 133856230#0 -997349781#1 -929718664 -1122037242 -398664215 99278916"/>
    </vehicle>

    <vehicle id="7254" depart="31.00" arrival="71.00">
        <route edges="-391862870#2 24547816"/>
    </vehicle>

    <vehicle id="8873" depart="17.00" arrival="72.00">
        <route edges="948053614"/>
    </vehicle>

    <vehicle id="8930" depart="36.00" arrival="79.00">
        <route edges="681479565 224316513#0 91181774#0 E14"/>
    </vehicle>

    <vehicle id="8915" depart="59.00" arrival="81.00">
        <route edges="-398849856"/>
    </vehicle>

    <vehicle id="25" depart="56.00" arrival="82.00">
        <route edges="620169744#0"/>
    </vehicle>

    <vehicle id="8831" depart="21.00" arrival="86.00">
        <route edges="619568414 689603994"/>
    </vehicle>

    <vehicle id="8601" depart="46.00" arrival="91.00">
        <route edges="8918969#0 8918969#1"/>
    </vehicle>

    <vehicle id="5807" depart="49.00" arrival="92.00">
        <route edges="-286003784 -133856274 -396973463 133856232 396968570 133856230#0 -997349781#1 -929718664 -1122037242 -398664215 99278916"/>
    </vehicle>

    <vehicle id="2062" depart="38.00" arrival="97.00">
        <route edges="417187947#0 683423171#0"/>
    </vehicle>

    <vehicle id="8650" depart="43.00" arrival="101.00">
        <route edges="8917593#3 689603978"/>
    </vehicle>

    <vehicle id="1482" depart="58.00" arrival="101.00">
        <route edges="-682768769"/>
    </vehicle>

    <vehicle id="6595" depart="24.00" arrival="103.00">
        <route edges="945326760#0 8919062#1 -224373759#1 224373744#0 254299114#0 397093352#0"/>
    </vehicle>

    <vehicle id="6529" depart="6.00" arrival="107.00">
        <route edges="254453308#0 397105094#0 1052659297 84733260#0 513875408#0 761313525#2 761313525#4 398675753#0 1111713269 483197410#0 84654229#0"/>
    </vehicle>

    <vehicle id="5725" depart="32.00" arrival="108.00">
        <route edges="1082766087 505747779"/>
    </vehicle>

    <vehicle id="2067" depart="95.00" arrival="109.00">
        <route edges="-680438018#1"/>
    </vehicle>

    <vehicle id="8635" depart="5.00" arrival="111.00">
        <route edges="8918969#0 8918969#1 27043786#0 -48570006#0"/>
    </vehicle>

    <vehicle id="8647" depart="61.00" arrival="112.00">
        <route edges="8918969#0 8918969#1"/>
    </vehicle>

    <vehicle id="8841" depart="2.00" arrival="118.00">
        <route edges="-48570006#0 -414894752#0 8918969#0 8918969#1 27043786#0"/>
    </vehicle>

    <vehicle id="6690" depart="103.00" arrival="122.00">
        <route edges="158468715#0"/>
    </vehicle>

    <vehicle id="5871" depart="52.00" arrival="123.00">
        <route edges="99278916 408575053 8917523#0 -8919163#3 -8919163#1 -8917284#0 286003784"/>
    </vehicle>

    <vehicle id="8637" depart="9.00" arrival="125.00">
        <route edges="8915454 31498097#0 31498097#1 27093595 397270469 397266206 395279939 -513674704 8916854#1 8917742#1 397266204 225854641"/>
    </vehicle>

    <vehicle id="6683" depart="7.00" arrival="127.00">
        <route edges="-417962857 -155373677#6 -155373677#5 -155373677#3 27397098#0 8920529#1 155373677#5 155373677#6 417962857 417962863#1 417962863#2 225516713#0 225516713#1 225516712#0 225516712#1 225516712#2"/>
    </vehicle>

    <vehicle id="7262" depart="33.00" arrival="132.00">
        <route edges="-419657507#0 -391862870#2 24547816 254760012#1 254760012#2 -419657503"/>
    </vehicle>

    <vehicle id="6728" depart="13.00" arrival="136.00">
        <route edges="110365012#3 1105938795#0 945294690#0 969999009#0 -706542863#0"/>
    </vehicle>

    <vehicle id="7218" depart="17.00" arrival="137.00">
        <route edges="417284150#0 -204967528#2 -204967526#2 -204967525#2 -706549348#1 -408575052 30029867#0 30029878#0 -425516678#9"/>
    </vehicle>

    <vehicle id="6530" depart="7.00" arrival="140.00">
        <route edges="417087426 228228520#0 397116935#0 417087322#0 403877660#0"/>
    </vehicle>

    <vehicle id="2066" depart="20.00" arrival="140.00">
        <route edges="680783343#0 397079440#0 397079441#0 225516716#1 -283527469 -680437116 283527464#0 283527473#0 396985371#0 255178172#0 283527486#0 414372254 283527499#0 396985367#0 396985368#0 283529419#0 396985369#1 396985366#0 283529422#0 283529402#0 396987349#0 396987356#0 283529405#0"/>
    </vehicle>

    <vehicle id="2053" depart="36.00" arrival="143.00">
        <route edges="417187947#0 674862557#0 -27239376 -972747929#2 514631364#0"/>
    </vehicle>

    <vehicle id="6717" depart="2.00" arrival="148.00">
        <route edges="502795544#0 502795946#0 502795946#3 502795943#0 527857414#0 527857410#0 766798666#0 144489137#0 1057808746#0 515595963 225847517 1120144354#0 771447982#0 771447982#2"/>
    </vehicle>

    <vehicle id="2038" depart="16.00" arrival="156.00">
        <route edges="-680438018#1 -680438021 680438022 24670791#1 283523316#0 437536832#0 514631364#0 397074756#0 680204514#0 27023142#0 -682768770#1 -682768769"/>
    </vehicle>

    <vehicle id="6714" depart="95.00" arrival="157.00">
        <route edges="969999009#0 -706542863#0"/>
    </vehicle>

    <vehicle id="6677" depart="98.00" arrival="159.00">
        <route edges="969999009#0 -706542863#0"/>
    </vehicle>

    <vehicle id="8931" depart="10.00" arrival="160.00">
        <route edges="37555378#0 37555378#1 37555378#2 37555378#3 37555378#4 397107863 419643694#0 419643694#1 397109143 619535679 133748407#0 -514614748#1 -255178101#1 8919208#0 8919208#2 8919208#3 8920210#5 255178116#5"/>
    </vehicle>

    <vehicle id="6640" depart="104.00" arrival="161.00">
        <route edges="969999009#0 -706542863#0"/>
    </vehicle>

    <vehicle id="2006" depart="13.00" arrival="163.00">
        <route edges="-678038624#1 -678038623 -8922325#3 8921019#2 8921019#3 8921019#4 -37555378#0 255351729#0 678038618 32007659 705655282#0 397138671"/>
    </vehicle>

    <vehicle id="6610" depart="0.00" arrival="164.00">
        <route edges="403152783#0 8921052 397093084 33236619 1021035219 1021035218 1039091829 771471742 -261517388 -27029219#1 -618375257 -706542863#0"/>
    </vehicle>

    <vehicle id="2010" depart="16.00" arrival="181.00">
        <route edges="8919908#2 674862559#0 680204515#0 683423171#0 283523575#0 675069277#0 674862555#0 -680438018#1"/>
    </vehicle>

    <vehicle id="8772" depart="155.00" arrival="181.00">
        <route edges="-505761791#1"/>
    </vehicle>

    <vehicle id="1407" depart="37.00" arrival="185.00">
        <route edges="-682768769 667768341#0 437536832#0 514631364#0 397074756#0 680204514#0 27023142#0 -682768770#1"/>
    </vehicle>

    <vehicle id="8644" depart="40.00" arrival="185.00">
        <route edges="27146311#0 254750821#0 254750821#1 254750821#3 254750821#5 254750821#6 254750821#8 254750821#10 255178167#0 996680758#0 254299728#0 254299728#0.49 254299728#3 619568411#1"/>
    </vehicle>

    <vehicle id="8937" depart="47.00" arrival="186.00">
        <route edges="-505761791#1 -148847001#2 1084290107#0 143666212#0"/>
    </vehicle>

    <vehicle id="5800" depart="16.00" arrival="189.00">
        <route edges="30029703#4 -399156531#1 -706531342#1 -706531342#0 -706531343#0 -397060249#1 -24335486#1 -397264925 -397135720 -408586848 -706527721#1 513676833#0 91182068#0 91182069#0 28843615#3 397146708#0 397146715#0"/>
    </vehicle>

    <vehicle id="6668" depart="41.00" arrival="195.00">
        <route edges="945294690#0 969999009#0 -706542863#0 110365012#2 110365012#3 1105938795#0"/>
    </vehicle>

    <vehicle id="6583" depart="6.00" arrival="197.00">
        <route edges="254297756 -8917520#3 -1115783622#0 -680243313 -86331267 86331224#0 86331208#0 515611953 396959904 396959900 396959903 396959898 158468954#0 158468960#0"/>
    </vehicle>

    <vehicle id="8706" depart="30.00" arrival="197.00">
        <route edges="417087254 -766805262 -1020490223#2 -1020490223#0 -88572874#1 88572943#0 88572943#1 417087695#0 403877660#0"/>
    </vehicle>

    <vehicle id="6655" depart="2.00" arrival="198.00">
        <route edges="502795943#0 86303758#0 -397170089#2 686250338#0 527829944#3 527829942#0 527829940#0"/>
    </vehicle>

    <vehicle id="6627" depart="1.00" arrival="200.00">
        <route edges="-225516712#2 -225516712#1 -225516712#0 8921823#0 192368992#0 192368986#0 8917480 1160157796 1160157794 1160157793 1160157791 1160157790 8919899 396989359 231656264 254982298#0 254758130#0"/>
    </vehicle>

    <vehicle id="1466" depart="16.00" arrival="201.00">
        <route edges="-682768769 667768341#0 437536832#0 514631364#0 397074756#0 8916590#0 -682768772#3 -8917852#1 8919908#2"/>
    </vehicle>

    <vehicle id="8942" depart="36.00" arrival="202.00">
        <route edges="87235216#0 87235195#0 254968969#0 586323493#0 87235206#0 89802410#0 89802427#0 89802447#0"/>
    </vehicle>

    <vehicle id="8834" depart="5.00" arrival="206.00">
        <route edges="-228186482#1 88597575#0 620169771#0 620169771#3 254971067#0 1112996372 706543479 513676825 706543478#0 133733590 -224384019#2 -E14"/>
    </vehicle>

    <vehicle id="1510" depart="85.00" arrival="206.00">
        <route edges="679078833#2 -8916547#14 -8917357#0 -27434949#1 -679078833#1 -679078803#2 -679078803#0 -159156717#4 -286447882#2 E1 247329530 397138674#0 417963966#0"/>
    </vehicle>

    <vehicle id="8879" depart="23.00" arrival="215.00">
        <route edges="1065793153 1059809667 30642925 529968580#0 225520568 939734644 395806664 8915382 89527380 513667640 513667637 397137558 159156714#1 -427279470#0"/>
    </vehicle>

    <vehicle id="2037" depart="11.00" arrival="218.00">
        <route edges="437537914#0 61636694#0 680103309 61636695#0 255351743#0 397074755#0 417187947#0 683423171#0 283523575#0 675069277#0 283523318#0 397264558#0 397264555#0 681276013#0 255170285#0 107270330#0 107270329#0 283523310#0"/>
    </vehicle>

    <vehicle id="2008" depart="12.00" arrival="222.00">
        <route edges="705655282#0 397138671 8915373#0 8915373#2 931316064 23875544 31487916 306788549 286465213 467626517 467626518 E36 192369090#0 254759952 925092450 286505375#0 286505375#2 -27145608#2"/>
    </vehicle>

    <vehicle id="7207" depart="56.00" arrival="222.00">
        <route edges="417087474 34128773#0 513963921#0 1215827892 682004790#0 38095939#0 38095939#2 8917349"/>
    </vehicle>

    <vehicle id="7212" depart="41.00" arrival="224.00">
        <route edges="8921357 27397329 254759952 925092450 -8920284 417962863#2 225516713#0 225516713#1 225516712#0 225516712#1 225516712#2 514577069#0 254982297#0 254982297#1 254982297#2 254982298#0 -254759976#5 -254759976#3 1034016052#2 26378102 397097601#1"/>
    </vehicle>

    <vehicle id="5754" depart="11.00" arrival="226.00">
        <route edges="254971054#1 513726808#0 682326886#0 513726809#0 27147680#0 1060461424 681971885#0 514598270 512883694 1037067730 437935567#0 681971891#0 -8917085#2 -8917085#0 -45566316#1 -45566316#0 -34129168 -515461616 -437962966 437962967#0 -23881019#0 397077537"/>
    </vehicle>

    <vehicle id="8921" depart="46.00" arrival="227.00">
        <route edges="344209399#0 286180034#0 286180604#0 758055982#0 286186806#0 255170257#0 -437538522#10 -255170252#1 255170261#0"/>
    </vehicle>

    <person id="p_4042" depart="43.00" arrival="231.00">
        <ride from="91181771#4" to="247966219#0" arrivalPos="141.99" lines="taxi"/>
    </person>

    <vehicle id="8910" depart="10.00" arrival="238.00">
        <route edges="-254396709#2 254396719#0 254756526#0 254971069#0 513676822#0 27054205#0 417099344 27054209 1041357578#0"/>
    </vehicle>

    <vehicle id="2021" depart="20.00" arrival="238.00">
        <route edges="-8917852#1 8919908#2 674862559#0 680204515#0 683423171#0 283523575#0 675069277#0 674862555#0 -680438018#1"/>
    </vehicle>

    <vehicle id="6582" depart="3.00" arrival="240.00">
        <route edges="398675756#0 265107028#0 930588346#0 930588346#3 930588346#5 930588346#6 930588346#7 417979723 -120257665 -133856291 -133856290 -566870808 -120257662"/>
    </vehicle>

    <vehicle id="1468" depart="105.00" arrival="240.00">
        <route edges="8919908#2 674862559#0 680204515#0 683423171#0 283523575#0 675069277#0 674862555#0 -680438018#1"/>
    </vehicle>

    <vehicle id="8813" depart="18.00" arrival="245.00">
        <route edges="512038661 417087306#0.43 1071635370 1112220490#0 417087312#0 1112220493 417087300#0 111050389#0 111050389#2 111050389#3 620200099#0 493107462#0 493107462#2 1124361285#0 419633753#1 397121318#1 397121315 397121317 397120203 25758513 406719126#0 27029200#1 991915375 133735128 513595718"/>
    </vehicle>

    <vehicle id="8883" depart="7.00" arrival="248.00">
        <route edges="23925325 469387975 397120477 397120481 397120480 397120483 397120482 397120484#0 397120484#1 397120484#2 397120479 397120478 1112856338 1112856337 224373742 469387973 397120476#0 33783051#0 -254299130#6 -254299130#5"/>
    </vehicle>

    <vehicle id="8739" depart="38.00" arrival="256.00">
        <route edges="27029246#0 706552278#0 721725416#2 617990568#0 617268038#0 706531723#0 706531723#2 706531723#3 91181769#0 91181769#1 91181769#2 88572874#0 1020490223#0 1020490223#1 27029263#0 27029263#0.103 -766805264 -24335439#2 -24335439#1 -24335439#0"/>
    </vehicle>

    <vehicle id="5768" depart="11.00" arrival="257.00">
        <route edges="-225516694 -225516726 -254759944 -133743837 -8916853#2 -8916853#1 32930020#3 32930020#4 431578837#0 431578837#1 431578837#2 431578837#3 431578837#4 27028353#0 8918953#2 142947251#0 -27028350"/>
    </vehicle>

    <vehicle id="8935" depart="55.00" arrival="263.00">
        <route edges="89802427#0 89802447#0 89802419#0 89802431#0 89802435#0 -255170253#2 437433228#8 8917125#7 89802428#0"/>
    </vehicle>

    <vehicle id="7219" depart="0.00" arrival="264.00">
        <route edges="-437558597#1 -970291440 -254982297#1 -254982297#0 -514577069#2 -225516712#2 -225516712#1 -225516712#0 -225516713#2 -225516713#0 -417962863#2 -417962863#1 -417962857 -155373677#6 -155373677#5 -155373677#3 -155373677#1 254759950 27397108 -8920071#1 -8920071#0 155373677#0"/>
    </vehicle>

    <vehicle id="6584" depart="13.00" arrival="272.00">
        <route edges="948053614 32930401 681658474 123867457 508664746 27432750 -514593148#1 -254308553#1 254308548#0 254308548#2 513705407 -706547162#1 -397127920 513704346#0"/>
    </vehicle>

    <vehicle id="8519" depart="4.00" arrival="274.00">
        <route edges="8916881 8916841 148899306#0 148899306#2 148899305 148899332 468547467 396985421 148899327 8919540#0 8919540#1 -196816082"/>
    </vehicle>

    <vehicle id="2064" depart="80.00" arrival="275.00">
        <route edges="-8917852#1 8919908#2 674862559#0 680204515#0 683423171#0 283523575#0 675069277#0 674862555#0 -680438018#1"/>
    </vehicle>

    <vehicle id="8659" depart="43.00" arrival="282.00">
        <route edges="-8918151#3 283529419#0 396985369#1 396985366#0 283529422#0 283529402#0 396987349#0 396987356#0 283529405#0 283529412#0 283529415#0 396987354#0 8916198#0 286489241 286492456 286493661#0 286493661#1 286493661#2 -397120476#1 -469387973 -224373742 -1112856337 -1112856338 -397120478 27630854"/>
    </vehicle>

    <vehicle id="6688" depart="2.00" arrival="283.00">
        <route edges="86336709#2 8919173#0 8917284#3 8917284#6 262933356#2 86336712#0 84733283#0 23874038#0 398846303 398846304 287658818 1122562494#0 254453308#0 397105094#0 1052659297 84733260#0 513875408#0"/>
    </vehicle>

    <vehicle id="6576" depart="2.00" arrival="284.00">
        <route edges="417396772 1059508735 620169772 254299142#0 989329938#0 1166095110#0 1166095110#1 397144265#0 1111450276 1021093206 111552058#0 111552058#2 255330068#0 204884397#0 1024537343"/>
    </vehicle>

    <vehicle id="8652" depart="48.00" arrival="284.00">
        <route edges="133743897#1 133743897#2 133743897#3 133743897#4 133743897#6 133743897#7 133743897#8 133743897#9 133743897#11 396983902#0 396983902#1 -27044185#1 -27044185#0 -225516719 -283527469 -680437116 283527464#0 -680382797#2 -679312243#0 -27044194#0 27044189#0"/>
    </vehicle>

    <vehicle id="6613" depart="3.00" arrival="286.00">
        <route edges="396961260#0 396966245#0 396966246 485618966 -8917026#2 -8917026#0 -396966240#2 -396966240#1 -396966240#0 -1029250491#1 -1029250491#0 -396973461#2 1121164080#0 1117317597 133856233#0 396968575 133856231#0 133856231#1 254453306#0 158468715#0 86336712#0 84733283#0 23874038#0 398846303 398846304 287658818 1122562494#0 254453308#0 397105094#0 1052659297 84733260#0 513875408#0"/>
    </vehicle>

    <vehicle id="2043" depart="14.00" arrival="288.00">
        <route edges="437537914#0 61636694#0 680103309 61636695#0 255351743#0 397074755#0 417187947#0 683423171#0 283523575#0 675069277#0 283523318#0 397264558#0 397264555#0 681276013#0 255170285#0 107270330#0 107270329#0 283523310#0"/>
    </vehicle>

    <vehicle id="8956" depart="2.00" arrival="289.00">
        <route edges="417384964 -513937855 -418530178 -418530174 -133856371 -513937857 -417384946 437753099 286646570 514460031 396973793 475457060 397165806#0 397165806#1 8920402#1 8920402#2 8920402#3 -255351711#6 8919071 417384996"/>
    </vehicle>

    <person id="p_5794" depart="14.00" arrival="291.00">
        <ride from="1051004023#0" to="-397148934#1" arrivalPos="108.70" lines="taxi"/>
    </person>

    <vehicle id="2030" depart="7.00" arrival="294.00">
        <route edges="8916586#0 397251253#0 397250669#0 29482573#0 29482575#0 396966586#0 148902191#0 283523312#0 397264557#0 397264559#0 283523316#0 437536832#0 514631364#0 397074756#0 8916590#0 437537914#0 679837018#0 283530495#0 679837017#1 24487846#0 24487862#0 396983464#0 437559831#0 437560093#0 283526867#0 396983468#0 255178174#0 283526871#0 396983469#0 106046467#0 283526875#0"/>
    </vehicle>

    <vehicle id="5793" depart="46.00" arrival="294.00">
        <route edges="-397146708#1 -28843615#4 -28843615#2 734004334#2 513676830#0 513676831#0 -91182068#1 513676834#0 91182067#0 30035647#0 397135720 397264925 24335486#0 397060249#0 24335487 706531343#1 706531342#1 399156531#0 399156531#4 399156531#5"/>
    </vehicle>

    <vehicle id="6697" depart="17.00" arrival="295.00">
        <route edges="514442926 254750814#1 -772926390#1 -706555128#1 1122268861#0 1122268858#0 255168049#0 1151616880#0 514442925 514449209 -514452166 -514456307 -514461305 -286673287 -514461307 -192552507#2 -192552299#2 -437560094#1 -437558597#1"/>
    </vehicle>

    <vehicle id="7216" depart="14.00" arrival="297.00">
        <route edges="-30029708#1 30030100#0 30030100#2 148846995#0 415197400#0 681183500#0 148846996 -48211487#2 -517260065#1 -416877246 -416878315#1 -254971056#2 -514407369#1 27054205#0 417099344 8916867 1061779494 425516649#0 287958607#0 1112996372 706543479 513676825 7065434