<?xml version="1.0" encoding="UTF-8"?>

<!-- generated on 2025-05-08 09:29:58 by Eclipse SUMO GUI Version 1.20.0
<configuration xmlns:xsi="http://www.w3.org/2001/XMLSchema-instance" xsi:noNamespaceSchemaLocation="http://sumo.dlr.de/xsd/sumoConfiguration.xsd">

    <input>
        <net-file value="/Users/beyzaeken/Desktop/sfdigitalmirror/sumoenv/sf_new.net.xml"/>
        <route-files value="/Users/beyzaeken/Desktop/sfdigitalmirror/sumoenv/scenario/normal/2021-01-14/09-10/sf_routes_210114_0910.rou.xml, /Users/beyzaeken/Desktop/sfdigitalmirror/fleet_vehicles.rou.xml, /Users/beyzaeken/Desktop/sfdigitalmirror/passenger_requests.rou.xml"/>
        <additional-files value="/Users/beyzaeken/Desktop/sfdigitalmirror/sumoenv/taz_zones.poly.xml"/>
    </input>

    <output>
        <queue-output value="/Users/beyzaeken/Desktop/sfdigitalmirror/sumoenv/scenario/normal/2021-01-14/09-10/queue.xml"/>
        <summary-output value="/Users/beyzaeken/Desktop/sfdigitalmirror/sumoenv/scenario/normal/2021-01-14/09-10/summary.xml"/>
        <tripinfo-output value="/Users/beyzaeken/Desktop/sfdigitalmirror/sumoenv/scenario/normal/2021-01-14/09-10/tripinfos.xml"/>
        <vehroute-output value="/Users/beyzaeken/Desktop/sfdigitalmirror/sumoenv/scenario/normal/2021-01-14/09-10/vehroute.xml"/>
        <save-state.prefix value="/Users/beyzaeken/Desktop/sfdigitalmirror/sumoenv/scenario/normal/2021-01-14/09-10/state"/>
    </output>

    <time>
        <end value="3600"/>
    </time>

    <processing>
        <threads value="4"/>
        <ignore-junction-blocker value="1"/>
        <ignore-route-errors value="true"/>
        <time-to-teleport value="35"/>
    </processing>

    <report>
        <log value="/Users/beyzaeken/Desktop/sfdigitalmirror/sumoenv/scenario/normal/2021-01-14/09-10/sumo_log.txt"/>
        <no-step-log value="true"/>
    </report>

    <traci_server>
        <remote-port value="51278"/>
    </traci_server>

</configuration>
-->

<routes xmlns:xsi="http://www.w3.org/2001/XMLSchema-instance" xsi:noNamespaceSchemaLocation="http://sumo.dlr.de/xsd/routes_file.xsd">
    <vehicle id="7260" depart="2.00" arrival="16.00">
        <route edges="-391862870#2"/>
    </vehicle>

    <vehicle id="1544" depart="5.00" arrival="18.00">
        <route edges="678038618"/>
    </vehicle>

    <vehicle id="5788" depart="10.00" arrival="31.00">
        <route edges="-8917284#0 286003784"/>
    </vehicle>

    <vehicle id="2055" depart="22.00" arrival="33.00">
        <route edges="32007659"/>
    </vehicle>

    <vehicle id="8719" depart="0.00" arrival="34.00">
        <route edges="-8918969#0"/>
    </vehicle>

    <vehicle id="8885" depart="23.00" arrival="36.00">
        <route edges="681660474#0"/>
    </vehicle>

    <vehicle id="1486" depart="29.00" arrival="41.00">
        <route edges="-680438018#1"/>
    </vehicle>

    <vehicle id="5740" depart="34.00" arrival="49.00">
        <route edges="254760012#1"/>
    </vehicle>

    <vehicle id="7258" depart="34.00" arrival="51.00">
        <route edges="-254760012#1"/>
    </vehicle>

    <vehicle id="5732" depart="25.00" arrival="52.00">
        <route edges="24547816"/>
    </vehicle>

    <vehicle id="1431" depart="37.00" arrival="59.00">
        <route edges="-680438021"/>
    </vehicle>

    <vehicle id="8759" depart="43.00" arrival="67.00">
        <route edges="681758091"/>
    </vehicle>

    <vehicle id="5849" depart="21.00" arrival="70.00">
        <route edges="-262935286 44671098#2 44671098#3"/>
    </vehicle>

    <vehicle id="7215" depart="28.00" arrival="70.00">
        <route edges="24547816 254760012#1"/>
    </vehicle>

    <vehicle id="5803" depart="24.00" arrival="71.00">
        <route edges="-286003784 -133856274 -396973463 133856232 396968570 133856230#0 -997349781#1 -929718664 -1122037242 -398664215 99278916"/>
    </vehicle>

    <vehicle id="7254" depart="31.00" arrival="71.00">
        <route edges="-391862870#2 24547816"/>
    </vehicle>

    <vehicle id="8873" depart="17.00" arrival="72.00">
        <route edges="948053614"/>
    </vehicle>

    <vehicle id="8930" depart="36.00" arrival="79.00">
        <route edges="681479565 224316513#0 91181774#0 E14"/>
    </vehicle>

    <vehicle id="8915" depart="59.00" arrival="81.00">
        <route edges="-398849856"/>
    </vehicle>

    <vehicle id="25" depart="56.00" arrival="82.00">
        <route edges="620169744#0"/>
    </vehicle>

    <vehicle id="8831" depart="21.00" arrival="86.00">
        <route edges="619568414 689603994"/>
    </vehicle>

    <vehicle id="8601" depart="46.00" arrival="91.00">
        <route edges="8918969#0 8918969#1"/>
    </vehicle>

    <vehicle id="5807" depart="49.00" arrival="92.00">
        <route edges="-286003784 -133856274 -396973463 133856232 396968570 133856230#0 -997349781#1 -929718664 -1122037242 -398664215 99278916"/>
    </vehicle>

    <vehicle id="2062" depart="38.00" arrival="97.00">
        <route edges="417187947#0 683423171#0"/>
    </vehicle>

    <vehicle id="8650" depart="43.00" arrival="101.00">
        <route edges="8917593#3 689603978"/>
    </vehicle>

    <vehicle id="1482" depart="58.00" arrival="101.00">
        <route edges="-682768769"/>
    </vehicle>

    <vehicle id="6595" depart="24.00" arrival="103.00">
        <route edges="945326760#0 8919062#1 -224373759#1 224373744#0 254299114#0 397093352#0"/>
    </vehicle>

    <vehicle id="6529" depart="6.00" arrival="107.00">
        <route edges="254453308#0 397105094#0 1052659297 84733260#0 513875408#0 761313525#2 761313525#4 398675753#0 1111713269 483197410#0 84654229#0"/>
    </vehicle>

    <vehicle id="5725" depart="32.00" arrival="108.00">
        <route edges="1082766087 505747779"/>
    </vehicle>

    <vehicle id="2067" depart="95.00" arrival="109.00">
        <route edges="-680438018#1"/>
    </vehicle>

    <vehicle id="8635" depart="5.00" arrival="111.00">
        <route edges="8918969#0 8918969#1 27043786#0 -48570006#0"/>
    </vehicle>

    <vehicle id="8647" depart="61.00" arrival="112.00">
        <route edges="8918969#0 8918969#1"/>
    </vehicle>

    <vehicle id="8841" depart="2.00" arrival="118.00">
        <route edges="-48570006#0 -414894752#0 8918969#0 8918969#1 27043786#0"/>
    </vehicle>

    <vehicle id="6690" depart="103.00" arrival="122.00">
        <route edges="158468715#0"/>
    </vehicle>

    <vehicle id="5871" depart="52.00" arrival="123.00">
        <route edges="99278916 408575053 8917523#0 -8919163#3 -8919163#1 -8917284#0 286003784"/>
    </vehicle>

    <vehicle id="8637" depart="9.00" arrival="125.00">
        <route edges="8915454 31498097#0 31498097#1 27093595 397270469 397266206 395279939 -513674704 8916854#1 8917742#1 397266204 225854641"/>
    </vehicle>

    <vehicle id="6683" depart="7.00" arrival="127.00">
        <route edges="-417962857 -155373677#6 -155373677#5 -155373677#3 27397098#0 8920529#1 155373677#5 155373677#6 417962857 417962863#1 417962863#2 225516713#0 225516713#1 225516712#0 225516712#1 225516712#2"/>
    </vehicle>

    <vehicle id="7262" depart="33.00" arrival="132.00">
        <route edges="-419657507#0 -391862870#2 24547816 254760012#1 254760012#2 -419657503"/>
    </vehicle>

    <vehicle id="6728" depart="13.00" arrival="136.00">
        <route edges="110365012#3 1105938795#0 945294690#0 969999009#0 -706542863#0"/>
    </vehicle>

    <vehicle id="7218" depart="17.00" arrival="137.00">
        <route edges="417284150#0 -204967528#2 -204967526#2 -204967525#2 -706549348#1 -408575052 30029867#0 30029878#0 -425516678#9"/>
    </vehicle>

    <vehicle id="6530" depart="7.00" arrival="140.00">
        <route edges="417087426 228228520#0 397116935#0 417087322#0 403877660#0"/>
    </vehicle>

    <vehicle id="2066" depart="20.00" arrival="140.00">
        <route edges="680783343#0 397079440#0 397079441#0 225516716#1 -283527469 -680437116 283527464#0 283527473#0 396985371#0 255178172#0 283527486#0 414372254 283527499#0 396985367#0 396985368#0 283529419#0 396985369#1 396985366#0 283529422#0 283529402#0 396987349#0 396987356#0 283529405#0"/>
    </vehicle>

    <vehicle id="2053" depart="36.00" arrival="143.00">
        <route edges="417187947#0 674862557#0 -27239376 -972747929#2 514631364#0"/>
    </vehicle>

    <vehicle id="6717" depart="2.00" arrival="148.00">
        <route edges="502795544#0 502795946#0 502795946#3 502795943#0 527857414#0 527857410#0 766798666#0 144489137#0 1057808746#0 515595963 225847517 1120144354#0 771447982#0 771447982#2"/>
    </vehicle>

    <vehicle id="2038" depart="16.00" arrival="156.00">
        <route edges="-680438018#1 -680438021 680438022 24670791#1 283523316#0 437536832#0 514631364#0 397074756#0 680204514#0 27023142#0 -682768770#1 -682768769"/>
    </vehicle>

    <vehicle id="6714" depart="95.00" arrival="157.00">
        <route edges="969999009#0 -706542863#0"/>
    </vehicle>

    <vehicle id="6677" depart="98.00" arrival="159.00">
        <route edges="969999009#0 -706542863#0"/>
    </vehicle>

    <vehicle id="8931" depart="10.00" arrival="160.00">
        <route edges="37555378#0 37555378#1 37555378#2 37555378#3 37555378#4 397107863 419643694#0 419643694#1 397109143 619535679 133748407#0 -514614748#1 -255178101#1 8919208#0 8919208#2 8919208#3 8920210#5 255178116#5"/>
    </vehicle>

    <vehicle id="6640" depart="104.00" arrival="161.00">
        <route edges="969999009#0 -706542863#0"/>
    </vehicle>

    <vehicle id="2006" depart="13.00" arrival="163.00">
        <route edges="-678038624#1 -678038623 -8922325#3 8921019#2 8921019#3 8921019#4 -37555378#0 255351729#0 678038618 32007659 705655282#0 397138671"/>
    </vehicle>

    <vehicle id="6610" depart="0.00" arrival="164.00">
        <route edges="403152783#0 8921052 397093084 33236619 1021035219 1021035218 1039091829 771471742 -261517388 -27029219#1 -618375257 -706542863#0"/>
    </vehicle>

    <vehicle id="2010" depart="16.00" arrival="181.00">
        <route edges="8919908#2 674862559#0 680204515#0 683423171#0 283523575#0 675069277#0 674862555#0 -680438018#1"/>
    </vehicle>

    <vehicle id="8772" depart="155.00" arrival="181.00">
        <route edges="-505761791#1"/>
    </vehicle>

    <vehicle id="1407" depart="37.00" arrival="185.00">
        <route edges="-682768769 667768341#0 437536832#0 514631364#0 397074756#0 680204514#0 27023142#0 -682768770#1"/>
    </vehicle>

    <vehicle id="8644" depart="40.00" arrival="185.00">
        <route edges="27146311#0 254750821#0 254750821#1 254750821#3 254750821#5 254750821#6 254750821#8 254750821#10 255178167#0 996680758#0 254299728#0 254299728#0.49 254299728#3 619568411#1"/>
    </vehicle>

    <vehicle id="8937" depart="47.00" arrival="186.00">
        <route edges="-505761791#1 -148847001#2 1084290107#0 143666212#0"/>
    </vehicle>

    <vehicle id="5800" depart="16.00" arrival="189.00">
        <route edges="30029703#4 -399156531#1 -706531342#1 -706531342#0 -706531343#0 -397060249#1 -24335486#1 -397264925 -397135720 -408586848 -706527721#1 513676833#0 91182068#0 91182069#0 28843615#3 397146708#0 397146715#0"/>
    </vehicle>

    <vehicle id="6668" depart="41.00" arrival="195.00">
        <route edges="945294690#0 969999009#0 -706542863#0 110365012#2 110365012#3 1105938795#0"/>
    </vehicle>

    <vehicle id="6583" depart="6.00" arrival="197.00">
        <route edges="254297756 -8917520#3 -1115783622#0 -680243313 -86331267 86331224#0 86331208#0 515611953 396959904 396959900 396959903 396959898 158468954#0 158468960#0"/>
    </vehicle>

    <vehicle id="8706" depart="30.00" arrival="197.00">
        <route edges="417087254 -766805262 -1020490223#2 -1020490223#0 -88572874#1 88572943#0 88572943#1 417087695#0 403877660#0"/>
    </vehicle>

    <vehicle id="6655" depart="2.00" arrival="198.00">
        <route edges="502795943#0 86303758#0 -397170089#2 686250338#0 527829944#3 527829942#0 527829940#0"/>
    </vehicle>

    <vehicle id="6627" depart="1.00" arrival="200.00">
        <route edges="-225516712#2 -225516712#1 -225516712#0 8921823#0 192368992#0 192368986#0 8917480 1160157796 1160157794 1160157793 1160157791 1160157790 8919899 396989359 231656264 254982298#0 254758130#0"/>
    </vehicle>

    <vehicle id="1466" depart="16.00" arrival="201.00">
        <route edges="-682768769 667768341#0 437536832#0 514631364#0 397074756#0 8916590#0 -682768772#3 -8917852#1 8919908#2"/>
    </vehicle>

    <vehicle id="8942" depart="36.00" arrival="202.00">
        <route edges="87235216#0 87235195#0 254968969#0 586323493#0 87235206#0 89802410#0 89802427#0 89802447#0"/>
    </vehicle>

    <vehicle id="8834" depart="5.00" arrival="206.00">
        <route edges="-228186482#1 88597575#0 620169771#0 620169771#3 254971067#0 1112996372 706543479 513676825 706543478#0 133733590 -224384019#2 -E14"/>
    </vehicle>

    <vehicle id="1510" depart="85.00" arrival="206.00">
        <route edges="679078833#2 -8916547#14 -8917357#0 -27434949#1 -679078833#1 -679078803#2 -679078803#0 -159156717#4 -286447882#2 E1 247329530 397138674#0 417963966#0"/>
    </vehicle>

    <vehicle id="8879" depart="23.00" arrival="215.00">
        <route edges="1065793153 1059809667 30642925 529968580#0 225520568 939734644 395806664 8915382 89527380 513667640 513667637 397137558 159156714#1 -427279470#0"/>
    </vehicle>

    <vehicle id="2037" depart="11.00" arrival="218.00">
        <route edges="437537914#0 61636694#0 680103309 61636695#0 255351743#0 397074755#0 417187947#0 683423171#0 283523575#0 675069277#0 283523318#0 397264558#0 397264555#0 681276013#0 255170285#0 107270330#0 107270329#0 283523310#0"/>
    </vehicle>

    <vehicle id="2008" depart="12.00" arrival="222.00">
        <route edges="705655282#0 397138671 8915373#0 8915373#2 931316064 23875544 31487916 306788549 286465213 467626517 467626518 E36 192369090#0 254759952 925092450 286505375#0 286505375#2 -27145608#2"/>
    </vehicle>

    <vehicle id="7207" depart="56.00" arrival="222.00">
        <route edges="417087474 34128773#0 513963921#0 1215827892 682004790#0 38095939#0 38095939#2 8917349"/>
    </vehicle>

    <vehicle id="7212" depart="41.00" arrival="224.00">
        <route edges="8921357 27397329 254759952 925092450 -8920284 417962863#2 225516713#0 225516713#1 225516712#0 225516712#1 225516712#2 514577069#0 254982297#0 2549